<?xml version="1.0"?>
<VTKFile type="UnstructuredGrid"  version="0.1"  >
<UnstructuredGrid>
<Piece  NumberOfPoints="6292" NumberOfCells="12120">
<Points>
<DataArray  type="Float64"  NumberOfComponents="3"  format="ascii">0 0 0  0.0104733 0.00809002 0  0.0172427 0.00976466 0  0.0233983 0.0103763 0  0.0292338 0.0104335 0  0.034863 0.0101332 0  0.0403441 0.009576599999999999 0  0.045712 0.00882376 0  0.0509892 0.00791388 0  0.0561915 0.00687422 0  0.0613303 0.00572466 0  0.0664143 0.00448023 0  0.07145029999999999 0.00315262 0  0.0764437 0.00175116 0  0.08139879999999999 0.000283434 0  0.0863193 -0.00124431 0  0.0912082 -0.0028268 0  0.096068 -0.00445961 0  0.100901 -0.0061389 0  0.105709 -0.00786135 0  0.110494 -0.00962409 0  0.115257 -0.0114246 0  0.119999 -0.0132605 0  0.124723 -0.0151299 0  0.129427 -0.017031 0  0.134115 -0.0189621 0  0.138786 -0.0209218 0  0.143442 -0.0229086 0  0.148082 -0.0249215 0  0.152708 -0.0269592 0  0.15732 -0.0290207 0  0.161919 -0.0311052 0  0.166506 -0.0332116 0  0.17108 -0.0353391 0  0.175642 -0.0374871 0  0.180193 -0.0396547 0  0.184733 -0.0418413 0  0.189263 -0.0440463 0  0.193782 -0.046269 0  0.198291 -0.048509 0  0.202791 -0.0507657 0  0.207281 -0.0530386 0  0.211762 -0.0553272 0  0.216235 -0.0576311 0  0.220699 -0.0599498 0  0.225154 -0.062283 0  0.229601 -0.0646303 0  0.234041 -0.0669912 0  0.238473 -0.06936539999999999 0  0.242897 -0.0717527 0  0.247314 -0.0741526 0  0.251723 -0.07656499999999999 0  0.256126 -0.0789893 0  0.260522 -0.0814255 0  0.264912 -0.08387319999999999 0  0.269294 -0.08633209999999999 0  0.273671 -0.08880200000000001 0  0.278041 -0.09128260000000001 0  0.282406 -0.0937738 0  0.286764 -0.09627520000000001 0  0.291116 -0.09878670000000001 0  0.295463 -0.101308 0  0.299804 -0.103839 0  0.30414 -0.106379 0  0.308471 -0.108929 0  0.312796 -0.111488 0  0.317116 -0.114055 0  0.321431 -0.116632 0  0.325741 -0.119217 0  0.330047 -0.12181 0  0.334347 -0.124411 0  0.338643 -0.12702 0  0.342935 -0.129638 0  0.347222 -0.132263 0  0.351504 -0.134895 0  0.355782 -0.137536 0  0.360056 -0.140183 0  0.364326 -0.142838 0  0.368592 -0.145499 0  0.372854 -0.148168 0  0.377112 -0.150843 0  0.381366 -0.153525 0  0.385616 -0.156214 0  0.389863 -0.158909 0  0.394105 -0.16161 0  0.398345 -0.164318 0  0.40258 -0.167032 0  0.406813 -0.169752 0  0.411041 -0.172478 0  0.415267 -0.175209 0  0.419489 -0.177946 0  0.423708 -0.180689 0  0.427923 -0.183438 0  0.432136 -0.186192 0  0.436345 -0.188951 0  0.440552 -0.191716 0  0.444755 -0.194486 0  0.448955 -0.197261 0  0.453153 -0.200041 0  0.457347 -0.202826 0  0.461539 -0.205616 0  0.465728 -0.208411 0  0.469914 -0.21121 0  0.474098 -0.214015 0  0.478279 -0.216823 0  0.482457 -0.219637 0  0.486632 -0.222455 0  0.490805 -0.225277 0  0.494976 -0.228104 0  0.499144 -0.230935 0  0.503309 -0.23377 0  0.507472 -0.23661 0  0.511633 -0.239454 0  0.515791 -0.242301 0  0.519947 -0.245153 0  0.524101 -0.248009 0  0.528253 -0.250869 0  0.532402 -0.253733 0  0.5365490000000001 -0.2566 0  0.540693 -0.259472 0  0.544836 -0.262347 0  0.548976 -0.265226 0  0.553114 -0.268108 0  0.55725 -0.270995 0  0.561384 -0.273885 0  0.565516 -0.276778 0  0.569646 -0.279675 0  0.573774 -0.282576 0  0.5779 -0.28548 0  0.582024 -0.288388 0  0.5861459999999999 -0.291299 0  0.590265 -0.294213 0  0.594383 -0.297131 0  0.598499 -0.300052 0  0.602613 -0.302977 0  0.606726 -0.305904 0  0.610836 -0.308836 0  0.614944 -0.31177 0  0.619051 -0.314708 0  0.623155 -0.317648 0  0.627258 -0.320593 0  0.631359 -0.32354 0  0.635458 -0.32649 0  0.639555 -0.329444 0  0.6436500000000001 -0.332401 0  0.647744 -0.335361 0  0.651836 -0.338324 0  0.655926 -0.34129 0  0.660014 -0.34426 0  0.6641 -0.347232 0  0.668185 -0.350208 0  0.6722669999999999 -0.353187 0  0.6763479999999999 -0.356169 0  0.680427 -0.359154 0  0.684505 -0.362142 0  0.68858 -0.365133 0  0.692654 -0.368127 0  0.696726 -0.371125 0  0.700796 -0.374125 0  0.704865 -0.377129 0  0.708931 -0.380135 0  0.712996 -0.383145 0  0.717059 -0.386158 0  0.72112 -0.389174 0  0.725179 -0.392194 0  0.729237 -0.395216 0  0.7332920000000001 -0.398242 0  0.7373459999999999 -0.401271 0  0.741398 -0.404303 0  0.745448 -0.407338 0  0.749497 -0.410376 0  0.753543 -0.413418 0  0.757587 -0.416463 0  0.76163 -0.419511 0  0.765671 -0.422563 0  0.76971 -0.425618 0  0.773746 -0.428676 0  0.7777809999999999 -0.431738 0  0.781814 -0.434803 0  0.785845 -0.437871 0  0.789874 -0.440943 0  0.793901 -0.444018 0  0.797926 -0.447097 0  0.801949 -0.450179 0  0.80597 -0.453265 0  0.809989 -0.456354 0  0.814006 -0.459447 0  0.818021 -0.462544 0  0.822033 -0.465644 0  0.826044 -0.468748 0  0.830052 -0.471856 0  0.834058 -0.474967 0  0.838062 -0.478083 0  0.842063 -0.481202 0  0.846063 -0.484325 0  0.85006 -0.487452 0  0.854055 -0.490583 0  0.858048 -0.493718 0  0.862038 -0.496857 0  0.866026 -0.5 0  0.86131 -0.498118 0  0.856596 -0.496231 0  0.851885 -0.494341 0  0.847176 -0.492447 0  0.842469 -0.490549 0  0.837765 -0.488647 0  0.833063 -0.486741 0  0.828363 -0.484831 0  0.823665 -0.482917 0  0.81897 -0.481 0  0.814277 -0.479079 0  0.809585 -0.477154 0  0.8048959999999999 -0.475225 0  0.8002089999999999 -0.473293 0  0.795524 -0.471358 0  0.790842 -0.469418 0  0.786161 -0.467475 0  0.781482 -0.465529 0  0.776805 -0.463579 0  0.77213 -0.461626 0  0.767458 -0.459669 0  0.762787 -0.457709 0  0.758118 -0.455745 0  0.753451 -0.453778 0  0.748786 -0.451808 0  0.744123 -0.449835 0  0.739462 -0.447858 0  0.734803 -0.445878 0  0.730145 -0.443894 0  0.72549 -0.441908 0  0.720836 -0.439918 0  0.716184 -0.437925 0  0.711534 -0.435928 0  0.706886 -0.433929 0  0.70224 -0.431926 0  0.697595 -0.42992 0  0.692953 -0.427911 0  0.688312 -0.425899 0  0.683673 -0.423884 0  0.679036 -0.421866 0  0.6744 -0.419844 0  0.669767 -0.41782 0  0.665135 -0.415792 0  0.660505 -0.413761 0  0.655877 -0.411727 0  0.65125 -0.40969 0  0.646626 -0.40765 0  0.642003 -0.405607 0  0.637382 -0.40356 0  0.632762 -0.401511 0  0.628145 -0.399458 0  0.623529 -0.397403 0  0.618915 -0.395344 0  0.614303 -0.393282 0  0.609693 -0.391217 0  0.605085 -0.389148 0  0.600478 -0.387077 0  0.595873 -0.385002 0  0.591271 -0.382924 0  0.58667 -0.380843 0  0.58207 -0.378759 0  0.577473 -0.376672 0  0.572878 -0.374581 0  0.568284 -0.372487 0  0.563692 -0.37039 0  0.559103 -0.368289 0  0.554515 -0.366185 0  0.549929 -0.364078 0  0.545345 -0.361967 0  0.540763 -0.359853 0  0.536183 -0.357736 0  0.531605 -0.355615 0  0.527029 -0.35349 0  0.522455 -0.351362 0  0.517884 -0.34923 0  0.513314 -0.347095 0  0.508746 -0.344956 0  0.504181 -0.342814 0  0.499617 -0.340668 0  0.495056 -0.338518 0  0.490497 -0.336364 0  0.48594 -0.334207 0  0.481385 -0.332045 0  0.476833 -0.32988 0  0.472283 -0.327711 0  0.467735 -0.325537 0  0.46319 -0.32336 0  0.458647 -0.321179 0  0.454106 -0.318993 0  0.449568 -0.316803 0  0.445032 -0.314609 0  0.440499 -0.312411 0  0.435968 -0.310208 0  0.43144 -0.308001 0  0.426914 -0.305789 0  0.422391 -0.303573 0  0.417871 -0.301352 0  0.413353 -0.299127 0  0.408838 -0.296896 0  0.404326 -0.294661 0  0.399817 -0.292421 0  0.395311 -0.290176 0  0.390807 -0.287926 0  0.386307 -0.285671 0  0.38181 -0.28341 0  0.377315 -0.281144 0  0.372824 -0.278873 0  0.368336 -0.276597 0  0.363851 -0.274314 0  0.359369 -0.272027 0  0.354891 -0.269733 0  0.350416 -0.267434 0  0.345944 -0.265129 0  0.341476 -0.262817 0  0.337012 -0.2605 0  0.332551 -0.258176 0  0.328093 -0.255846 0  0.32364 -0.25351 0  0.31919 -0.251167 0  0.314744 -0.248817 0  0.310302 -0.24646 0  0.305864 -0.244097 0  0.30143 -0.241726 0  0.297001 -0.239349 0  0.292575 -0.236964 0  0.288154 -0.234571 0  0.283737 -0.232171 0  0.279325 -0.229763 0  0.274917 -0.227347 0  0.270514 -0.224924 0  0.266115 -0.222492 0  0.261722 -0.220051 0  0.257333 -0.217603 0  0.252949 -0.215145 0  0.248571 -0.212679 0  0.244198 -0.210203 0  0.23983 -0.207719 0  0.235467 -0.205224 0  0.23111 -0.202721 0  0.226759 -0.200207 0  0.222413 -0.197683 0  0.218074 -0.195149 0  0.21374 -0.192605 0  0.209413 -0.19005 0  0.205092 -0.187483 0  0.200778 -0.184906 0  0.19647 -0.182317 0  0.192169 -0.179716 0  0.187875 -0.177103 0  0.183588 -0.174478 0  0.179309 -0.17184 0  0.175037 -0.16919 0  0.170772 -0.166525 0  0.166516 -0.163847 0  0.162268 -0.161156 0  0.158028 -0.158449 0  0.153796 -0.155728 0  0.149574 -0.152991 0  0.14536 -0.150239 0  0.141156 -0.147471 0  0.136961 -0.144686 0  0.132777 -0.141883 0  0.128602 -0.139063 0  0.124439 -0.136225 0  0.120286 -0.133367 0  0.116145 -0.13049 0  0.112015 -0.127592 0  0.107898 -0.124674 0  0.103793 -0.121733 0  0.0997015 -0.118769 0  0.09562370000000001 -0.115782 0  0.0915603 -0.11277 0  0.08751200000000001 -0.109731 0  0.08347930000000001 -0.106666 0  0.07946309999999999 -0.103572 0  0.0754643 -0.100448 0  0.0714837 -0.0972922 0  0.0675225 -0.09410300000000001 0  0.0635817 -0.0908783 0  0.0596627 -0.087616 0  0.055767 -0.08431329999999999 0  0.0518962 -0.0809675 0  0.0480522 -0.07757509999999999 0  0.0442373 -0.0741325 0  0.040454 -0.07063510000000001 0  0.0367054 -0.0670777 0  0.032995 -0.0634541 0  0.0293272 -0.0597566 0  0.0257075 -0.0559759 0  0.0221425 -0.0521003 0  0.018641 -0.0481149 0  0.0152144 -0.0439996 0  0.0118785 -0.0397273 0  0.008655899999999999 -0.0352588 0  0.00558128 -0.030534 0  0.00271302 -0.0254517 0  0.000164898 -0.0198149 0  -0.00176951 -0.0131151 0  -10 0 0  0 10 0  10 0 0  0 -10 0  0.00523664 0.00404501 0  -0.000884755 -0.00655757 0  -9.95185 0.980171 0  -9.80785 1.9509 0  -9.5694 2.90285 0  -9.238799999999999 3.82683 0  -8.81921 4.71397 0  -8.3147 5.5557 0  -7.7301 6.34393 0  -7.07107 7.07107 0  -6.34393 7.7301 0  -5.5557 8.3147 0  -4.71397 8.81921 0  -3.82683 9.238799999999999 0  -2.90285 9.5694 0  -1.9509 9.80785 0  -0.980171 9.95185 0  0.980171 9.95185 0  1.9509 9.80785 0  2.90285 9.5694 0  3.82683 9.238799999999999 0  4.71397 8.81921 0  5.5557 8.3147 0  6.34393 7.7301 0  7.07107 7.07107 0  7.7301 6.34393 0  8.3147 5.5557 0  8.81921 4.71397 0  9.238799999999999 3.82683 0  9.5694 2.90285 0  9.80785 1.9509 0  9.95185 0.980171 
[...]
<PointData  Scalars="u"> 
<DataArray  type="Float64"  Name="u"  format="ascii">1.7982819450537413e+01  -1.5683895361500442e+00  -1.1578098906907085e+01  -1.8064781099736045e+01  -2.1802449007210054e+01  -2.3268895206126313e+01  -2.2569292812223498e+01  -2.2329366824905744e+01  -2.2681493608251454e+01  -2.2602590166163143e+01  -2.2330960164320953e+01  -2.2076373899346212e+01  -2.1908667208543740e+01  -2.1801690926229504e+01  -2.1737442274727048e+01  -2.1700921144978992e+01  -2.1668979093657786e+01  -2.1625635257290842e+01  -2.1577725777579754e+01  -2.1556800210803548e+01  -2.1564164819607473e+01  -2.1619159051004438e+01  -2.1708023512528822e+01  -2.1820058862740503e+01  -2.1916971029462125e+01  -2.2014994859307755e+01  -2.2105632494736994e+01  -2.2194085633468347e+01  -2.2286694708632211e+01  -2.2391833365391658e+01  -2.2524159238036699e+01  -2.2657521424529190e+01  -2.2814438337609566e+01  -2.3014969479942771e+01  -2.3251996159541317e+01  -2.3508505794050077e+01  -2.3819115796744136e+01  -2.4071637634732831e+01  -2.4354660336807882e+01  -2.4596232200976953e+01  -2.4791399238343939e+01  -2.5027415201639510e+01  -2.5273046682462489e+01  -2.5431803468590783e+01  -2.5494761953459960e+01  -2.5574382993330989e+01  -2.5657671047835670e+01  -2.5646508381225097e+01  -2.5594960869253782e+01  -2.5541941724454148e+01  -2.5434032750496595e+01  -2.5303702679700212e+01  -2.5096565634881404e+01  -2.4902101678545215e+01  -2.4543830189248059e+01  -2.4272913064240637e+01  -2.4027871736337637e+01  -2.3767034047985359e+01  -2.3439672145826801e+01  -2.3172799740722475e+01  -2.2995114585354258e+01  -2.2829516395600994e+01  -2.2743934950586144e+01  -2.2683446080806409e+01  -2.2686208907594363e+01  -2.2709758277829142e+01  -2.2745480036221682e+01  -2.2810889780204896e+01  -2.2868058062689268e+01  -2.2928029138019365e+01  -2.2966601122070397e+01  -2.2987010760397894e+01  -2.2980587866477471e+01  -2.2943530881623076e+01  -2.2874693245140136e+01  -2.2777716958834809e+01  -2.2636884483141326e+01  -2.2464152144977422e+01  -2.2273481389946241e+01  -2.2057613146065705e+01  -2.1851614639138290e+01  -2.1631721615708507e+01  -2.1445173377436515e+01  -2.1289787473309911e+01  -2.1150290458950529e+01  -2.1028398148440854e+01  -2.0917306245866538e+01  -2.0815215358990084e+01  -2.0731867568450696e+01  -2.0632947394485406e+01  -2.0541692340864277e+01  -2.0448552690484910e+01  -2.0359241236136420e+01  -2.0263636197277741e+01  -2.0160405222185705e+01  -2.0030328156427867e+01  -1.9881295330707129e+01  -1.9723950274178641e+01  -1.9537956053448809e+01  -1.9377621949039099e+01  -1.9193247127816523e+01  -1.9078468776465559e+01  -1.8978909279900467e+01  -1.8943112780721684e+01  -1.8902754693955568e+01  -1.8868767597962520e+01  -1.8807051885405002e+01  -1.8716197892188525e+01  -1.8604750481457117e+01  -1.8476452979717966e+01  -1.8337926108130031e+01  -1.8183651189845097e+01  -1.8012725719529151e+01  -1.7836789671243295e+01  -1.7640808244112616e+01  -1.7445423875051858e+01  -1.7232721991378547e+01  -1.7020031520126842e+01  -1.6801170138319957e+01  -1.6559785346574973e+01  -1.6331550312855086e+01  -1.6098489752285715e+01  -1.5856247356133174e+01  -1.5624153126799575e+01  -1.5381228895902222e+01  -1.5153823564489675e+01  -1.4926996766306956e+01  -1.4714305892223447e+01  -1.4504530529229971e+01  -1.4305872643149362e+01  -1.4117940620479203e+01  -1.3951892044225602e+01  -1.3795322347197100e+01  -1.3669221457612522e+01  -1.3550622779703366e+01  -1.3464720534821630e+01  -1.3389479405963378e+01  -1.3377467035268216e+01  -1.3354408688439300e+01  -1.3380678597539642e+01  -1.3406669712755821e+01  -1.3505047227387726e+01  -1.3580111998784380e+01  -1.3740035849203590e+01  -1.3879478240898109e+01  -1.4085417271611584e+01  -1.4276936090668292e+01  -1.4582147779256641e+01  -1.4903688516348772e+01  -1.5208963399737149e+01  -1.5645931126925529e+01  -1.5931333820602052e+01  -1.6319280137699405e+01  -1.6848569760395982e+01  -1.7326363582881140e+01  -1.7697337248108877e+01  -1.8085466850533535e+01  -1.8633542364655867e+01  -1.9153726662168562e+01  -1.9721245320531121e+01  -1.9827602495024401e+01  -2.0620041192720961e+01  -2.1535948616910968e+01  -2.1812153109429850e+01  -2.2360058856912744e+01  -2.3281317566741937e+01  -2.3838379770915719e+01  -2.3953485884081793e+01  -2.4532636140162374e+01  -2.5811825690743703e+01  -2.6219292903588475e+01  -2.6673356266135489e+01  -2.7547976146204125e+01  -2.7585201722766840e+01  -2.7882981731196445e+01  -2.8571141087178241e+01  -2.9082614120453790e+01  -2.9781329915630227e+01  -3.0370956455526574e+01  -3.0541200179816634e+01  -3.0980633064343738e+01  -3.1340595527583535e+01  -3.1161260491894065e+01  -3.1824361156120506e+01  -3.2776363952677592e+01  -3.2771913569144246e+01  -3.2834555890339040e+01  -3.2783850580667043e+01  -3.2983052757393828e+01  -3.3325287233269776e+01  -3.3537882299661760e+01  -3.3712628469607495e+01  -3.3493725005729367e+01  -3.3284848395779363e+01  -3.3193628412469870e+01  -3.3167783186235717e+01  -3.2978136829658965e+01  -3.2925150659999673e+01  -3.2669340979013725e+01  -3.1935556637620586e+01  -3.0409202655708494e+01  -3.0668825553451118e+01  -2.8907713149229238e+01  -2.8343713306509493e+01  -2.5186976429251668e+01  -2.2486200244395459e+01  -1.8645895917760470e+01  -1.5052765247627866e+01  -1.3365177219790207e+01  -1.3045162395982581e+01  -1.2796893805985212e+01  -1.3942535270595629e+01  -1.5767813374867099e+01  -1.6342107771657133e+01  -1.7044302713886605e+01  -1.6078904820047654e+01  -1.5858967368524977e+01  -1.3838669506063157e+01  -1.1106599097859153e+01  -8.7041212881383583e+00  -7.0162877296823094e+00  -6.2230470792269221e+00  -6.3546752088433811e+00  -6.4640476480150459e+00  -6.6787881250120078e+00  -6.4604024443358234e+00  -6.3751157210630538e+00  -5.7176545076643475e+00  -5.3024104924539657e+00  -5.5446855094013028e+00  -6.0708033629950711e+00  -5.6947477043534542e+00  -4.7772133571660227e+00  -4.2314007097970636e+00  -3.8715283816618715e+00  -3.8311368036191293e+00  -3.3590865630164446e+00  -2.5516677280315294e+00  -2.8746217298789589e+00  -2.7219949750757015e+00  -1.3335933518284055e+00  -3.2805713789028818e-01  8.0261053101867486e-01  1.7003448340279963e+00  1.7139364125072061e+00  5.2549734732808961e-01  -1.8387502059419888e-01  -2.6822973128913458e-01  -2.3048078589822288e-01  5.4457350665691651e-01  1.5257868060080766e+00  1.8991860208848976e+00  3.1357249302303836e+00  3.9509439573361864e+00  4.1099095250058975e+00  4.5326782545025432e+00  4.4288792506650969e+00  4.8555841137038689e+00  5.5201661428588729e+00  5.2137326203717613e+00  5.1052674265613298e+00  5.1645697197228655e+00  5.0823543155554951e+00  5.7999827157414305e+00  6.2540724365949139e+00  6.5727386310164020e+00  6.9016677539943760e+00  7.5529847262827232e+00  8.0741718298813598e+00  7.8553857838733228e+00  7.7629494609972030e+00  7.5953106347385182e+00  7.7744593705304936e+00  8.4970549895968031e+00  9.1775568807557768e+00  9.7525347119833938e+00  1.0132153312734186e+01  9.9963832583409378e+00  9.9935120801403610e+00  9.8697870977602644e+00  1.0311763740319842e+01  1.1091185010563777e+01  1.1574736302743650e+01  1.2132390153154949e+01  1.2243156054099043e+01  1.2141618773279479e+01  1.2452752314685869e+01  1.2834722460278114e+01  1.3256295607904670e+01  1.3938592572426032e+01  1.4186976353348205e+01  1.4105648265303451e+01  1.3768167205272702e+01  1.4021937050978133e+01  1.4338381274925354e+01  1.4768168854303569e+01  1.5170987334705197e+01  1.5889710037228260e+01  1.6453467313339399e+01  1.6735349721668555e+01  1.6193349077556956e+01  1.5991949129557623e+01  1.5792447083978072e+01  1.5897831285901868e+01  1.6591305291053651e+01  1.7299995153458298e+01  1.8108332257298468e+01  1.8840047026285138e+01  1.9594460056920212e+01  2.0097557251910288e+01  1.9609544880075603e+01  1.9570884488744255e+01  1.9975567200850229e+01  2.0566539529180325e+01  2.1095284617036846e+01  2.1342923192126161e+01  2.1088544525942083e+01  2.1545421756063583e+01  2.1906027246517489e+01  2.1880910766509114e+01  2.2262174307197199e+01  2.2297568921446913e+01  2.2797136891583154e+01  2.3514998455698496e+01  2.3870747190728132e+01  2.4069241325322885e+01  2.4329106102824163e+01  2.4706536834354576e+01  2.5295330764420971e+01  2.5515189073369495e+01  2.6094920044340693e+01  2.6412350734220848e+01  2.6807635370483194e+01  2.7180246689431133e+01  2.7477396832311026e+01  2.7737301221274269e+01  2.7987965314787782e+01  2.8963840848260684e+01  2.9630022107513309e+01  2.9468433275151234e+01  2.9672534795835368e+01  2.9888907811642774e+01  3.0206992922293949e+01  3.1040528339853079e+01  3.1700355935336841e+01  3.1908479198844784e+01  3.2256529716959264e+01  3.2512695965776231e+01  3.2979468729488438e+01  3.3598925943029421e+01  3.4286621830515024e+01  3.4632157280593773e+01  3.5091745696693479e+01  3.5233805320222856e+01  3.5894172263709635e+01  3.6335307564563216e+01  3.6705002172687323e+01  3.7430219286584489e+01  3.7913022661196976e+01  3.8264514318685947e+01  3.8674826445565103e+01  3.9205978225578001e+01  3.9603852477218012e+01  4.0374476635507278e+01  4.0984958255361079e+01  4.1426075507325720e+01  4.2213512305313245e+01  4.2888918255647830e+01  4.3159550321323316e+01  4.3721729825220216e+01  4.4343518431191413e+01  4.4786898239305927e+01  4.5410593210129470e+01  4.6026315689698286e+01  4.6572067261517290e+01  4.6986577301874100e+01  4.7615795761252990e+01  4.8235561702745620e+01  4.8785458135113373e+01  4.9423723123940469e+01  5.0002406442139339e+01  5.0604153210983156e+01  5.1099904935859371e+01  5.1572357164830827e+01  5.2101650600032784e+01  5.2442085583168414e+01  5.2837318024604372e+01  5.3035028804424755e+01  5.3106063951001211e+01  5.3120887454594104e+01  5.3060665233205142e+01  5.2828185132840687e+01  5.2274122777010156e+01  5.1406714251769600e+01  4.9610549548970816e+01  4.7007219726541315e+01  4.3204765403903764e+01  3.6489402191673292e+01  7.9024014753866636e+00  0.0000000000000000e+00  0.0000000000000000e+00  0.0000000000000000e+00  7.7714243827192382e+00  2.8339498561893741e+01  7.8213091992842267e+00  7.6625561917505509e+00  7.5324724141078212e+00  7.6046072164908738e+00  7.2723963990721430e+00  7.0867596686531806e+00  6.8529843812518054e+00  6.7871021492779811e+00  6.2559607600559781e+00  6.0545360094138339e+00  6.0892790537560844e+00  5.2943506001605476e+00  5.2643342947758587e+00  4.3666654846481574e+00  4.2484878600252571e+00  0.0000000000000000e+00  0.0000000000000000e+00  0.0000000000000000e+00  0.0000000000000000e+00  0.0000000000000000e+00  0.0000000000000000e+00  0.0000000000000000e+00  0.0000000000000000e+00  0.0000000000000000e+00  0.0000000000000000e+00  0.0000000000000000e+00  0.0000000000000000e+00  0.0000000000000000e+00  0.0000000000000000e+00  0.0000000000000000e+00  0.0000000000000000e+00  0.0000000000000000e+00  0.0000000000000000e+00  0.0000000000000000e+00  0.0000000000000000e+00  0.0000000000000000e+00  0.0000000000000000e+00  0.0000000000000000e+00  0.0000000000000000e+00  0.0000000000000000e+00  0.0000000000000000e+00  0.0000000000000000e+00  0.0000000000000000e+00  0.0000000000000000e+00  0.0000000000000000e+00  4.0166627095817198e+00  6.2991863661625160e+00  5.6784161792698411e+00  6.2543444607152789e+00  7.2216583856221392e+00  7.0225464980463235e+00  7.5266492319504641e+00  7.5354080194804416e+00  7.7788503514859926e+00  7.7148782016384985e+00  7.8884487937327075e+00  8.0956051366102972e+00  8.0259498814328865e+00  8.0313390676779495e+00  8.0000539314997692e+00  5.9140460634828562e+00  7.0769493848258254e+00  8.6647290648507429e+00  7.7881504789963900e+00  6.5567184887264469e+00  9.5568596840146700e+00  1.0121186884806816e+01  4.3645044595074607e+00  1.0182242099425922e+00  2.5503582930576485e-01  7.5797058522524718e+00  -1.0638810932500119e+01  -7.1808342477178186e+00  3.9617359506887824e+00  1.3338674329739456e+01  1.3107725343160981e+01  7.6391317772892204e+00  1.8514662707837164e+01  1.3627416812971953e+01  -1.3409572289623219e+01  -3.7615301010707121e+01  7.0910283294013272e+00  3.6877945752322532e+00  1.0511395464049372e+01  2.1713828661942518e+01  2.6139300885239457e+01  1.7444671896158056e+01  -1.9833295582721419e+01  -3.7511027517250910e+00  -2.9292710584070097e+01  -4.7347699751240363e+01  -9.8185942759519584e-01  -4.1424219459788345e+00  -1.9457849585253889e+01  -2.3557887698766439e+01  5.2429912170744322e+00  1.5313895927647446e+01  2.4393136401415831e+01  3.2101976210476920e+01  9.8955840733312215e+00  -2.5782915700534296e+01  -3.6890862984085700e+01  -2.9518897527388383e+01  -2.0882660072660801e+01  -5.7487234292300204e+00  -3.8739840221990023e+00  -1.3243059720122824e+01  3.4264765175792895e+01  -2.3285195281113175e+01  -1.9495918561138005e+01  9.8306098188341515e+00  1.4966330953858769e+01  2.1140182686009886e+01  -2.7468481075238145e+01  -4.0918715821135407e+01  1.1208452774949729e+00  6.9347292574908410e+00  -1.8572526140026980e+01  -1.7850589873578482e+01  2.6609194832098979e+01  3.3071059277129251e+01  3.9514526595422360e+01  -2.2723063795174216e+01  5.1240968291502753e+00  2.1750464444089193e+01  7.7790707644761703e+00  -1.8778359878687500e+01  -2.6549672982985399e+01  -2.7683783953049367e+01  -1.9900925344912402e+01  -2.8100178611985232e+01  -2.7455977340969373e+01  7.4491272829598572e+00  -3.3628643665117643e+01  7.3821496860073310e+00  4.2574936517511290e+01  3.4070078079799558e+01  -4.2056441261995845e+00  -1.0963274259606148e+01  8.6388614653245259e+00  1.1696094159467528e+01  -2.0938469815798769e+01  -1.7948728353880369e+01  -2.2424516650834882e+01  -1.9765907190945040e+01  -3.9078974597627774e+00  1.2210108243114780e+01  1.7565493844628644e+01  -1.8205733493524573e+01  3.0736452439680033e+01  -2.6687712477580607e+01  -2.4476581926674552e+01  -3.5806200550458570e+01  1.4423829886555470e+01  2.0494473350420929e+01  2.4032497697153257e+01  -1.5634596828563733e+01  -1.3509523691090848e+00  1.9862916961492800e+00  3.4981619741690949e+01  3.9271833948070402e+01  1.2620926998520767e+01  5.3110993306323486e+00  2.6981279709003555e+01  -1.5625599179899774e+01  4.3493839838595427e+01  -2.3618895478934956e+01  -2.4656521930389605e+01  -6.3160719506059415e+00  3.6386601458850860e+00  -5.8686549218164101e+00  4.9267112257023822e+00  8.6412811233763396e+00  -1.6431431185145549e+01  -7.7648179318705131e+00  8.4032486950538647e+00  -2.7270947470116841e+01  -4.7863515563139522e+01  -2.1822073210531443e+01  -2.1350070337185890e+01  4.6717271366950662e+01  -2.2474112764262500e+01  4.3174537797329634e+01  2.7496771674970397e+01  8.3519353898933328e+00  -2.9450145316813305e+01  1.0242918994880982e+01  -2.5479799019745109e+01  -2.6627460042779781e+01  6.1848652627490806e+00  -1.4193931903553135e+01  5.8286201431470044e+00  -1.1855053470193910e+01  -1.6533209339742214e+01  -3.4791882286761322e+01  3.9624462415251376e+00  -1.8421458143142800e+01  6.4121975407794292e+00  -2.1819482521756861e+01  -2.0720154698146043e+01  -2.0570119780980203e+01  6.3969676508611384e+00  -1.8121855187817125e+01  9.6130835666483385e+00  -4.0675502027209713e+00  6.5711312489577125e+00  -1.6538523828510456e+01  -3.3549371071286799e+01  6.0856145862617250e+00  1.5730817284254352e+01  -1.9809312390763225e+01  -1.9047077340238680e+01  9.6366588092974101e+00  -2.5120147049175294e+01  1.8398061583341466e+01  6.1150046775292042e+00  7.9542792110901992e+00  6.9597744788481810e+00  -3.6048549278053144e+01  -2.1708439710825694e+01  2.9151916391078327e+01  4.8804961329193553e+01  3.1500407213003292e+01  6.0840488484163497e+00  5.4625995732080845e+00  6.0963538133757540e+00  -1.5571421749843622e-01  2.6326800210461245e+00  5.3128615776050143e+00  2.2067660018136962e+01  1.2538559236150123e+01  5.5331639542667732e+00  -2.2544151605752138e+01  9.6970275336641212e+00  4.1139089364693318e+00  6.2000269373750676e+00  2.4783375816506560e+01  -2.5231789438666496e+01  7.0709364214639834e+00  3.7587739872241073e+01  1.1092655177732157e+01  -1.6246891237921051e+01  -1.4983295567746415e+01  9.6251803963001290e+00  -3.1316997361639249e+01  -4.4255972094622722e+00  4.0533017003781907e+01  2.4994416283821131e+01  7.7044476516529166e+00  8.0304830346515406e+00  -1.3974311337337488e+01  8.6168858976811027e+00  -2.4472852438501730e-01  -6.4315665531468813e+00  -1.5877478295450778e+01  4.2154438384065209e+01  -1.8243391161734735e+01  -1.7219937464157923e+01  -2.6140126849718317e+01  1.8356470763687934e+01  1.7589101226349374e+01  6.2596611629133845e+00  1.0794376343703357e+01  1.0403052247500680e+01  1.6604282367397929e+01  1.5021521495804882e-01  1.9996704349448706e+01  -2.6748664614132451e+01  -9.2068116788217882e+00  -2.7315308172029944e+01  3.3627750531068337e+01  8.1177518764799714e+00  9.0373192460957981e+00  8.0870990886073990e+00  7.2610774361738173e+00  -2.3510494722686843e+01  -5.3455035539057192e+01  7.1439535763629545e+00  6.9316958934931581e+00  -2.2317445574772609e+01  -1.4057671707338821e+01  -3.4087490835899530e+01  -2.3026465088791916e+01  -7.5008356103162130e+00  -1.4580066341537329e+01  -3.5071930980180561e+01  -4.0379209733731010e+01  5.4784836038518288e+00  -2.1665327170071869e+01  -2.1329815600618012e+01  2.3332809426411032e+00  -1.1143983492702418e+01  -1.9718918516575094e+01  5.7092855484997980e+00  -2.0962859077240566e+01  4.6639346391511360e+01  -2.0277165884037121e+01  -2.1298999918484847e+00  -3.4440059349551809e+01  -9.1919212157988657e+00  7.6388642425524127e+00  1.4424553921726837e+01  -2.5733530517717870e+01  4.8347338390204273e+00  5.5354859857780312e+00  -4.0581563801192759e+00  -2.2514390273583469e+01  -2.7100871654706918e+01  1.6450502922651463e+01  -3.8214353109248577e+01  -2.3896492804568233e+01  3.3807583214737855e+00  -2.3101732588634508e+01  -3.8952437381000550e+01  -1.5304079784993677e+01  4.8960530512087370e+00  2.3170943130930645e+01  6.7203563268652227e+00  4.9729525413898115e+00  1.9812821087768246e+01  1.3139556593433253e+00  -5.5595984179319320e+00  4.9083316258296064e+00  4.9594888045935249e+01  -2.3461732732519803e+01  2.7488354772816432e+01  -3.3751852633242464e+01  -1.6285576192704731e+01  2.8469621919801675e+01  3.9782746690752795e+01  3.5774864378327059e+01  -2.8884961354703558e+00  -3.1021151390914813e+01  1.4240843409620879e+01  1.1484457595336544e+01  -2.9184302492429484e+01  -7.3736151315084610e+00  2.5267963233453152e+01  -2.2172212297400318e+01  -2.3888633500424181e+01  -2.4352326881942979e+01  -2.7418156085993381e+01  1.8021405689138696e+01  -1.1688254646736077e+01  6.5722694130213482e+00  4.4440195220182346e+01  -2.0476061899641014e+01  4.8776815534337743e+01  6.7200422632115355e+00  1.5333852976286591e+01  -2.8059768972676050e+01  1.5337376373724284e+01  2.9512402327038000e+01  -1.8860389032602029e+01  -3.2095037294879081e-01  -2.5169610813489790e+01  -1.5961507260342136e+01  9.9339244421749022e+00  -2.1638981884784545e+01  -8.0744270324084404e+00  -3.5254621140631204e-01  5.2172639493089790e-01  1.1762734388447418e+00  6.7868342542017421e+00  6.5621003504529716e+00  -4.3293272231361385e+01  -4.7771090053074673e+01  7.1924839567861616e+00  7.0994207298712739e+00  1.0385564871148302e+01  8.7581486795503611e+00  -2.7177243341243145e+01  4.9034073782139691e+00  4.9628719002252808e+00  -1.4527174791786294e+01  6.5913926600245132e+00  1.3145776496508590e+01  6.5741764150155477e+00  -3.9469818099448503e+01  9.2437608045265556e+00  -2.1134766428707319e+01  2.0829371689802610e+01  1.1236666798540208e-01  -6.7593068848552855e+00  8.7330942890139092e+00  -2.4592645759825619e+01  -1.9981061472781033e+01  -1.7363227645982136e+01  -1.9262499891233713e+01  -2.5548889723863372e+01  -2.8730991484752707e+01  -1.3521799371009878e+01  -2.5920111600257489e+01  -2.0768717101111079e+01  -1.9062111175213229e+01  1.2217678099727534e+01  -7.4071989626369872e+00  -1.8765824209479383e+01  8.3727468871317186e+00  -1.9600836795185089e+01  6.1705772044042142e+00  -1.5548481871277340e+00  7.5630438059911871e+00  -3.2122004467382396e+01  2.5975742133304848e+01  -3.2691635496575572e+01  1.0344124550562299e+01  -1.4267440494384939e+01  2.7633611551462199e+