<?xml version="1.0"?>
<VTKFile type="UnstructuredGrid"  version="0.1"  >
<UnstructuredGrid>
<Piece  NumberOfPoints="6292" NumberOfCells="12120">
<Points>
<DataArray  type="Float64"  NumberOfComponents="3"  format="ascii">0 0 0  0.0104733 0.00809002 0  0.0172427 0.00976466 0  0.0233983 0.0103763 0  0.0292338 0.0104335 0  0.034863 0.0101332 0  0.0403441 0.009576599999999999 0  0.045712 0.00882376 0  0.0509892 0.00791388 0  0.0561915 0.00687422 0  0.0613303 0.00572466 0  0.0664143 0.00448023 0  0.07145029999999999 0.00315262 0  0.0764437 0.00175116 0  0.08139879999999999 0.000283434 0  0.0863193 -0.00124431 0  0.0912082 -0.0028268 0  0.096068 -0.00445961 0  0.100901 -0.0061389 0  0.105709 -0.00786135 0  0.110494 -0.00962409 0  0.115257 -0.0114246 0  0.119999 -0.0132605 0  0.124723 -0.0151299 0  0.129427 -0.017031 0  0.134115 -0.0189621 0  0.138786 -0.0209218 0  0.143442 -0.0229086 0  0.148082 -0.0249215 0  0.152708 -0.0269592 0  0.15732 -0.0290207 0  0.161919 -0.0311052 0  0.166506 -0.0332116 0  0.17108 -0.0353391 0  0.175642 -0.0374871 0  0.180193 -0.0396547 0  0.184733 -0.0418413 0  0.189263 -0.0440463 0  0.193782 -0.046269 0  0.198291 -0.048509 0  0.202791 -0.0507657 0  0.207281 -0.0530386 0  0.211762 -0.0553272 0  0.216235 -0.0576311 0  0.220699 -0.0599498 0  0.225154 -0.062283 0  0.229601 -0.0646303 0  0.234041 -0.0669912 0  0.238473 -0.06936539999999999 0  0.242897 -0.0717527 0  0.247314 -0.0741526 0  0.251723 -0.07656499999999999 0  0.256126 -0.0789893 0  0.260522 -0.0814255 0  0.264912 -0.08387319999999999 0  0.269294 -0.08633209999999999 0  0.273671 -0.08880200000000001 0  0.278041 -0.09128260000000001 0  0.282406 -0.0937738 0  0.286764 -0.09627520000000001 0  0.291116 -0.09878670000000001 0  0.295463 -0.101308 0  0.299804 -0.103839 0  0.30414 -0.106379 0  0.308471 -0.108929 0  0.312796 -0.111488 0  0.317116 -0.114055 0  0.321431 -0.116632 0  0.325741 -0.119217 0  0.330047 -0.12181 0  0.334347 -0.124411 0  0.338643 -0.12702 0  0.342935 -0.129638 0  0.347222 -0.132263 0  0.351504 -0.134895 0  0.355782 -0.137536 0  0.360056 -0.140183 0  0.364326 -0.142838 0  0.368592 -0.145499 0  0.372854 -0.148168 0  0.377112 -0.150843 0  0.381366 -0.153525 0  0.385616 -0.156214 0  0.389863 -0.158909 0  0.394105 -0.16161 0  0.398345 -0.164318 0  0.40258 -0.167032 0  0.406813 -0.169752 0  0.411041 -0.172478 0  0.415267 -0.175209 0  0.419489 -0.177946 0  0.423708 -0.180689 0  0.427923 -0.183438 0  0.432136 -0.186192 0  0.436345 -0.188951 0  0.440552 -0.191716 0  0.444755 -0.194486 0  0.448955 -0.197261 0  0.453153 -0.200041 0  0.457347 -0.202826 0  0.461539 -0.205616 0  0.465728 -0.208411 0  0.469914 -0.21121 0  0.474098 -0.214015 0  0.478279 -0.216823 0  0.482457 -0.219637 0  0.486632 -0.222455 0  0.490805 -0.225277 0  0.494976 -0.228104 0  0.499144 -0.230935 0  0.503309 -0.23377 0  0.507472 -0.23661 0  0.511633 -0.239454 0  0.515791 -0.242301 0  0.519947 -0.245153 0  0.524101 -0.248009 0  0.528253 -0.250869 0  0.532402 -0.253733 0  0.5365490000000001 -0.2566 0  0.540693 -0.259472 0  0.544836 -0.262347 0  0.548976 -0.265226 0  0.553114 -0.268108 0  0.55725 -0.270995 0  0.561384 -0.273885 0  0.565516 -0.276778 0  0.569646 -0.279675 0  0.573774 -0.282576 0  0.5779 -0.28548 0  0.582024 -0.288388 0  0.5861459999999999 -0.291299 0  0.590265 -0.294213 0  0.594383 -0.297131 0  0.598499 -0.300052 0  0.602613 -0.302977 0  0.606726 -0.305904 0  0.610836 -0.308836 0  0.614944 -0.31177 0  0.619051 -0.314708 0  0.623155 -0.317648 0  0.627258 -0.320593 0  0.631359 -0.32354 0  0.635458 -0.32649 0  0.639555 -0.329444 0  0.6436500000000001 -0.332401 0  0.647744 -0.335361 0  0.651836 -0.338324 0  0.655926 -0.34129 0  0.660014 -0.34426 0  0.6641 -0.347232 0  0.668185 -0.350208 0  0.6722669999999999 -0.353187 0  0.6763479999999999 -0.356169 0  0.680427 -0.359154 0  0.684505 -0.362142 0  0.68858 -0.365133 0  0.692654 -0.368127 0  0.696726 -0.371125 0  0.700796 -0.374125 0  0.704865 -0.377129 0  0.708931 -0.380135 0  0.712996 -0.383145 0  0.717059 -0.386158 0  0.72112 -0.389174 0  0.725179 -0.392194 0  0.729237 -0.395216 0  0.7332920000000001 -0.398242 0  0.7373459999999999 -0.401271 0  0.741398 -0.404303 0  0.745448 -0.407338 0  0.749497 -0.410376 0  0.753543 -0.413418 0  0.757587 -0.416463 0  0.76163 -0.419511 0  0.765671 -0.422563 0  0.76971 -0.425618 0  0.773746 -0.428676 0  0.7777809999999999 -0.431738 0  0.781814 -0.434803 0  0.785845 -0.437871 0  0.789874 -0.440943 0  0.793901 -0.444018 0  0.797926 -0.447097 0  0.801949 -0.450179 0  0.80597 -0.453265 0  0.809989 -0.456354 0  0.814006 -0.459447 0  0.818021 -0.462544 0  0.822033 -0.465644 0  0.826044 -0.468748 0  0.830052 -0.471856 0  0.834058 -0.474967 0  0.838062 -0.478083 0  0.842063 -0.481202 0  0.846063 -0.484325 0  0.85006 -0.487452 0  0.854055 -0.490583 0  0.858048 -0.493718 0  0.862038 -0.496857 0  0.866026 -0.5 0  0.86131 -0.498118 0  0.856596 -0.496231 0  0.851885 -0.494341 0  0.847176 -0.492447 0  0.842469 -0.490549 0  0.837765 -0.488647 0  0.833063 -0.486741 0  0.828363 -0.484831 0  0.823665 -0.482917 0  0.81897 -0.481 0  0.814277 -0.479079 0  0.809585 -0.477154 0  0.8048959999999999 -0.475225 0  0.8002089999999999 -0.473293 0  0.795524 -0.471358 0  0.790842 -0.469418 0  0.786161 -0.467475 0  0.781482 -0.465529 0  0.776805 -0.463579 0  0.77213 -0.461626 0  0.767458 -0.459669 0  0.762787 -0.457709 0  0.758118 -0.455745 0  0.753451 -0.453778 0  0.748786 -0.451808 0  0.744123 -0.449835 0  0.739462 -0.447858 0  0.734803 -0.445878 0  0.730145 -0.443894 0  0.72549 -0.441908 0  0.720836 -0.439918 0  0.716184 -0.437925 0  0.711534 -0.435928 0  0.706886 -0.433929 0  0.70224 -0.431926 0  0.697595 -0.42992 0  0.692953 -0.427911 0  0.688312 -0.425899 0  0.683673 -0.423884 0  0.679036 -0.421866 0  0.6744 -0.419844 0  0.669767 -0.41782 0  0.665135 -0.415792 0  0.660505 -0.413761 0  0.655877 -0.411727 0  0.65125 -0.40969 0  0.646626 -0.40765 0  0.642003 -0.405607 0  0.637382 -0.40356 0  0.632762 -0.401511 0  0.628145 -0.399458 0  0.623529 -0.397403 0  0.618915 -0.395344 0  0.614303 -0.393282 0  0.609693 -0.391217 0  0.605085 -0.389148 0  0.600478 -0.387077 0  0.595873 -0.385002 0  0.591271 -0.382924 0  0.58667 -0.380843 0  0.58207 -0.378759 0  0.577473 -0.376672 0  0.572878 -0.374581 0  0.568284 -0.372487 0  0.563692 -0.37039 0  0.559103 -0.368289 0  0.554515 -0.366185 0  0.549929 -0.364078 0  0.545345 -0.361967 0  0.540763 -0.359853 0  0.536183 -0.357736 0  0.531605 -0.355615 0  0.527029 -0.35349 0  0.522455 -0.351362 0  0.517884 -0.34923 0  0.513314 -0.347095 0  0.508746 -0.344956 0  0.504181 -0.342814 0  0.499617 -0.340668 0  0.495056 -0.338518 0  0.490497 -0.336364 0  0.48594 -0.334207 0  0.481385 -0.332045 0  0.476833 -0.32988 0  0.472283 -0.327711 0  0.467735 -0.325537 0  0.46319 -0.32336 0  0.458647 -0.321179 0  0.454106 -0.318993 0  0.449568 -0.316803 0  0.445032 -0.314609 0  0.440499 -0.312411 0  0.435968 -0.310208 0  0.43144 -0.308001 0  0.426914 -0.305789 0  0.422391 -0.303573 0  0.417871 -0.301352 0  0.413353 -0.299127 0  0.408838 -0.296896 0  0.404326 -0.294661 0  0.399817 -0.292421 0  0.395311 -0.290176 0  0.390807 -0.287926 0  0.386307 -0.285671 0  0.38181 -0.28341 0  0.377315 -0.281144 0  0.372824 -0.278873 0  0.368336 -0.276597 0  0.363851 -0.274314 0  0.359369 -0.272027 0  0.354891 -0.269733 0  0.350416 -0.267434 0  0.345944 -0.265129 0  0.341476 -0.262817 0  0.337012 -0.2605 0  0.332551 -0.258176 0  0.328093 -0.255846 0  0.32364 -0.25351 0  0.31919 -0.251167 0  0.314744 -0.248817 0  0.310302 -0.24646 0  0.305864 -0.244097 0  0.30143 -0.241726 0  0.297001 -0.239349 0  0.292575 -0.236964 0  0.288154 -0.234571 0  0.283737 -0.232171 0  0.279325 -0.229763 0  0.274917 -0.227347 0  0.270514 -0.224924 0  0.266115 -0.222492 0  0.261722 -0.220051 0  0.257333 -0.217603 0  0.252949 -0.215145 0  0.248571 -0.212679 0  0.244198 -0.210203 0  0.23983 -0.207719 0  0.235467 -0.205224 0  0.23111 -0.202721 0  0.226759 -0.200207 0  0.222413 -0.197683 0  0.218074 -0.195149 0  0.21374 -0.192605 0  0.209413 -0.19005 0  0.205092 -0.187483 0  0.200778 -0.184906 0  0.19647 -0.182317 0  0.192169 -0.179716 0  0.187875 -0.177103 0  0.183588 -0.174478 0  0.179309 -0.17184 0  0.175037 -0.16919 0  0.170772 -0.166525 0  0.166516 -0.163847 0  0.162268 -0.161156 0  0.158028 -0.158449 0  0.153796 -0.155728 0  0.149574 -0.152991 0  0.14536 -0.150239 0  0.141156 -0.147471 0  0.136961 -0.144686 0  0.132777 -0.141883 0  0.128602 -0.139063 0  0.124439 -0.136225 0  0.120286 -0.133367 0  0.116145 -0.13049 0  0.112015 -0.127592 0  0.107898 -0.124674 0  0.103793 -0.121733 0  0.0997015 -0.118769 0  0.09562370000000001 -0.115782 0  0.0915603 -0.11277 0  0.08751200000000001 -0.109731 0  0.08347930000000001 -0.106666 0  0.07946309999999999 -0.103572 0  0.0754643 -0.100448 0  0.0714837 -0.0972922 0  0.0675225 -0.09410300000000001 0  0.0635817 -0.0908783 0  0.0596627 -0.087616 0  0.055767 -0.08431329999999999 0  0.0518962 -0.0809675 0  0.0480522 -0.07757509999999999 0  0.0442373 -0.0741325 0  0.040454 -0.07063510000000001 0  0.0367054 -0.0670777 0  0.032995 -0.0634541 0  0.0293272 -0.0597566 0  0.0257075 -0.0559759 0  0.0221425 -0.0521003 0  0.018641 -0.0481149 0  0.0152144 -0.0439996 0  0.0118785 -0.0397273 0  0.008655899999999999 -0.0352588 0  0.00558128 -0.030534 0  0.00271302 -0.0254517 0  0.000164898 -0.0198149 0  -0.00176951 -0.0131151 0  -10 0 0  0 10 0  10 0 0  0 -10 0  0.00523664 0.00404501 0  -0.000884755 -0.00655757 0  -9.95185 0.980171 0  -9.80785 1.9509 0  -9.5694 2.90285 0  -9.238799999999999 3.82683 0  -8.81921 4.71397 0  -8.3147 5.5557 0  -7.7301 6.34393 0  -7.07107 7.07107 0  -6.34393 7.7301 0  -5.5557 8.3147 0  -4.71397 8.81921 0  -3.82683 9.238799999999999 0  -2.90285 9.5694 0  -1.9509 9.80785 0  -0.980171 9.95185 0  0.980171 9.95185 0  1.9509 9.80785 0  2.90285 9.5694 0  3.82683 9.238799999999999 0  4.71397 8.81921 0  5.5557 8.3147 0  6.34393 7.7301 0  7.07107 7.07107 0  7.7301 6.34393 0  8.3147 5.5557 0  8.81921 4.71397 0  9.238799999999999 3.82683 0  9.5694 2.90285 0  9.80785 1.9509 0  9.95185 0.980171 
[...]
<PointData  Scalars="u"> 
<DataArray  type="Float64"  Name="u"  format="ascii">2.0942516452951139e+01  -1.3832360255356047e+00  -1.1788390218709655e+01  -1.5767863509543794e+01  -1.6275397967241823e+01  -1.5882208132194338e+01  -1.7282639061074114e+01  -1.8079797663704248e+01  -1.8062608814897434e+01  -1.7987138007200542e+01  -1.7920269658254522e+01  -1.7806715919712250e+01  -1.7751761226183163e+01  -1.7727005970143615e+01  -1.7718337290009604e+01  -1.7733117382413006e+01  -1.7767484836422927e+01  -1.7805753007265679e+01  -1.7840207250452604e+01  -1.7877132910221089e+01  -1.7918567485181459e+01  -1.7947294967024572e+01  -1.7961652788862501e+01  -1.7924512693344539e+01  -1.7856633464271319e+01  -1.7722218647290546e+01  -1.7517452778307455e+01  -1.7230810475740189e+01  -1.6884663758059165e+01  -1.6518039561075579e+01  -1.6158612623823444e+01  -1.5969419526720667e+01  -1.5936353027007337e+01  -1.6072225196839764e+01  -1.6436270961343556e+01  -1.6879311443273291e+01  -1.7490052147836550e+01  -1.8138488243358218e+01  -1.8839720135812382e+01  -1.9469062846659487e+01  -2.0207489324605838e+01  -2.0883021732451898e+01  -2.1471295979705829e+01  -2.2203111880140973e+01  -2.3037416310949702e+01  -2.3675022504870299e+01  -2.4126408883629765e+01  -2.4694210103318273e+01  -2.5315963439306600e+01  -2.5726748566001017e+01  -2.6138047104030029e+01  -2.6497004097247455e+01  -2.6950580660428173e+01  -2.7330953955806056e+01  -2.7660730001685959e+01  -2.8074262283478603e+01  -2.8397358571089775e+01  -2.8537953551387020e+01  -2.8818737005543991e+01  -2.9086967929668003e+01  -2.9371141185358464e+01  -2.9518006228332780e+01  -2.9616795079801172e+01  -2.9772337219573302e+01  -2.9879097470189393e+01  -2.9954219070038743e+01  -3.0047661491628190e+01  -3.0105457656315792e+01  -3.0201670281954094e+01  -3.0238276778373006e+01  -3.0288693955663462e+01  -3.0316902247952022e+01  -3.0318641310838562e+01  -3.0302711802859836e+01  -3.0326673296726156e+01  -3.0361512097114932e+01  -3.0295996344493624e+01  -3.0286319651555459e+01  -3.0301539966533749e+01  -3.0293217780162859e+01  -3.0280300810366658e+01  -3.0287841231846087e+01  -3.0284158316140893e+01  -3.0289884925340427e+01  -3.0300125871995810e+01  -3.0306712981634028e+01  -3.0337508030505511e+01  -3.0444393473647590e+01  -3.0541397830609860e+01  -3.0620955934395685e+01  -3.0707156533175649e+01  -3.0870024108960351e+01  -3.0959799637947906e+01  -3.1103201582804207e+01  -3.1302216897138685e+01  -3.1502961953095120e+01  -3.1726369395977965e+01  -3.1957576049544635e+01  -3.2258819359446647e+01  -3.2567470813847862e+01  -3.2934995745771829e+01  -3.3258366746400469e+01  -3.3664244732869570e+01  -3.4070076553778605e+01  -3.4517821323259703e+01  -3.4933095380926737e+01  -3.5352507198267958e+01  -3.5768193034014594e+01  -3.6245007425658649e+01  -3.6738829811775211e+01  -3.7086501128809019e+01  -3.7466875877447364e+01  -3.8009811357103501e+01  -3.8404109971062340e+01  -3.8800636010089519e+01  -3.9191964417883810e+01  -3.9618587860199028e+01  -4.0102016709014229e+01  -4.0666558866167492e+01  -4.1341673438892265e+01  -4.1731519144228038e+01  -4.1977654582876845e+01  -4.2114032127495648e+01  -4.2127333535497421e+01  -4.2396653880709472e+01  -4.2797120932813193e+01  -4.2857334095644340e+01  -4.3172459733019252e+01  -4.3546382239977120e+01  -4.3734499873296194e+01  -4.4067478727412734e+01  -4.4172715097788981e+01  -4.3925916519079301e+01  -4.3673724783856251e+01  -4.3802387308646495e+01  -4.3900469487441946e+01  -4.4436479860411609e+01  -4.3997563689443169e+01  -4.3858597032644987e+01  -4.3642385180903482e+01  -4.4146188227074269e+01  -4.4029442257772793e+01  -4.3007588636368943e+01  -4.2788876589168972e+01  -4.3139376948866186e+01  -4.2966797504075714e+01  -4.1881940673732053e+01  -4.1673938941343735e+01  -4.0870337796933526e+01  -4.0215773964298151e+01  -3.9440807339301081e+01  -3.9256976679637241e+01  -3.9191922018535514e+01  -3.9609034679562974e+01  -3.9897505146572875e+01  -3.9982265487081229e+01  -3.9491772379680789e+01  -3.8827385740993662e+01  -3.8877760480744719e+01  -3.8676518894663211e+01  -3.8232353000008935e+01  -3.7865109427509559e+01  -3.8143259566048066e+01  -3.8300103249585888e+01  -3.8386303407352145e+01  -3.8566893814671204e+01  -3.8801367086769510e+01  -3.8954098100436674e+01  -3.9216757326313029e+01  -3.9491877960004501e+01  -3.9868642014658832e+01  -4.0113930590209428e+01  -4.0453212177217679e+01  -4.0850780719049339e+01  -4.1233884328412763e+01  -4.1578462440696327e+01  -4.1924008523326506e+01  -4.2270822132757907e+01  -4.2632662423779294e+01  -4.2971552403854822e+01  -4.3316512994738567e+01  -4.3627373454390892e+01  -4.3958264076463436e+01  -4.4254540058743267e+01  -4.4554509568688403e+01  -4.4826526644043611e+01  -4.5101026005732258e+01  -4.5338157919014932e+01  -4.5582194903372745e+01  -4.5792885347538473e+01  -4.6009733480022724e+01  -4.6192844963711124e+01  -4.6354852098436709e+01  -4.6505014045020530e+01  -4.6618501087354730e+01  -4.6709286061701889e+01  -4.6693289477495249e+01  -4.6320805777187623e+01  -4.4954790208906324e+01  -3.9200951886746310e+01  -3.1436804481351405e+01  -2.6507596936525189e+01  -2.3550399539270661e+01  -2.1084313519181265e+01  -1.9239720394717619e+01  -1.8231427550993622e+01  -1.6960238825671031e+01  -1.6610165293699687e+01  -1.5144727299640296e+01  -1.4887835774292268e+01  -1.3339333610601564e+01  -1.1657741773932225e+01  -1.0792298238604554e+01  -8.9465964713710964e+00  -7.3208901818424534e+00  -5.5844017430632356e+00  -5.4650374593568172e+00  -5.3378689612812238e+00  -4.4561047494030035e+00  -3.8742465869978040e+00  -3.4195156370196456e+00  -2.6823246779496186e+00  -1.5443227370495276e+00  -4.7266913311521269e-01  4.5803724188545342e-01  6.1121192858754347e-01  6.1629234806891386e-01  1.2623061946625826e+00  1.6729534596721920e+00  2.0423650303092913e+00  1.9135225956299491e+00  2.4122115728666937e+00  3.1681100462879552e+00  3.4085617657196696e+00  4.1903883560820399e+00  4.9350232500680784e+00  5.0756486734458877e+00  5.5401691625683025e+00  5.8109787320137158e+00  6.3922196912453026e+00  7.0816690117986960e+00  7.7406565029913077e+00  7.7666433006582363e+00  7.9571946130761706e+00  8.3731064332610643e+00  9.1602377289411692e+00  9.6282855883861895e+00  9.6360878819320401e+00  9.9753228165753267e+00  1.0647273950507376e+01  1.1163936551638979e+01  1.1082931859320306e+01  1.1260006964192710e+01  1.1894923212263494e+01  1.2191672286864216e+01  1.2422557680025420e+01  1.2396159590159078e+01  1.2807080478988139e+01  1.3557740929682694e+01  1.3866296329972156e+01  1.4368017502475388e+01  1.4780771000065275e+01  1.4911427393580395e+01  1.5286556635107148e+01  1.5346305201954960e+01  1.5397148611206324e+01  1.5425150087833334e+01  1.5866012736508941e+01  1.6201387355024167e+01  1.6656445891800132e+01  1.7220786249817881e+01  1.7744678029984946e+01  1.7883345627766342e+01  1.8087026450289422e+01  1.8216111892246939e+01  1.8280888670363829e+01  1.8590161470962428e+01  1.8939944437388554e+01  1.9290339755133655e+01  1.9590951555400121e+01  1.9996955216750095e+01  2.0472760276679669e+01  2.1046033407576484e+01  2.1545283701150289e+01  2.1667618926743391e+01  2.1747211219159080e+01  2.1913483357426799e+01  2.1897677452589583e+01  2.2073211428095423e+01  2.2566765756332806e+01  2.2809203314311326e+01  2.3073896748444515e+01  2.3493551113984449e+01  2.3534692634978242e+01  2.3659389847987789e+01  2.4252396852128062e+01  2.4751649892845773e+01  2.5127947146793588e+01  2.5244242914571821e+01  2.5417418873601811e+01  2.5914287734223709e+01  2.6117143700576214e+01  2.6481234934464297e+01  2.6829089066127494e+01  2.7322727832969132e+01  2.7644896151155855e+01  2.7575452610389306e+01  2.7890167163616006e+01  2.8120005948468176e+01  2.8532843198095556e+01  2.9162929223364788e+01  2.9545332533307917e+01  2.9632256327251739e+01  3.0072425704989051e+01  3.0122838707586752e+01  3.0295148979516235e+01  3.0498220859398447e+01  3.0798635041355578e+01  3.1154842327916615e+01  3.1384847784071916e+01  3.1603278304286992e+01  3.2370666700582269e+01  3.2957864090781797e+01  3.3064004931536495e+01  3.3358061775466865e+01  3.3734343048459557e+01  3.4054117198325024e+01  3.4311081214908008e+01  3.4771519053809094e+01  3.4950691658632351e+01  3.5575314807677245e+01  3.6048731562346020e+01  3.6111667263869720e+01  3.6556678202719723e+01  3.6974478098366689e+01  3.7171194888914904e+01  3.7702621805231281e+01  3.7902952451782774e+01  3.8071085279800684e+01  3.8390656456898547e+01  3.9049373039044049e+01  3.9597343787312440e+01  3.9978155260127274e+01  4.0376433163040609e+01  4.0651988447519493e+01  4.1237848204880962e+01  4.1736017399878222e+01  4.2316175002218728e+01  4.2634179187669723e+01  4.2919220968030920e+01  4.3337080404811338e+01  4.3735222641057746e+01  4.4218918181191199e+01  4.4589341007002346e+01  4.4980017706207377e+01  4.5401736600079865e+01  4.5971867224646743e+01  4.6454840742982867e+01  4.6713984735428603e+01  4.7206845941533196e+01  4.7618528344883707e+01  4.8210915877174855e+01  4.8728665781597492e+01  4.9106140805117988e+01  4.9664789728094689e+01  5.0115863458222250e+01  5.0819420190908509e+01  5.1427772151337514e+01  5.1658805684355478e+01  5.2112254706878907e+01  5.2744323794906748e+01  5.3327881189198607e+01  5.3913097824147968e+01  5.4352008295806506e+01  5.4835451501727292e+01  5.5237593998294678e+01  5.5744055351265416e+01  5.6255143273526897e+01  5.6698958190162294e+01  5.7201231225284566e+01  5.7628510636763174e+01  5.8087942341268771e+01  5.8461257463448604e+01  5.8828282126942476e+01  5.9233421966361533e+01  5.9505056243906232e+01  5.9750526453618946e+01  5.9856533636032886e+01  5.9842558739432690e+01  5.9680373489465296e+01  5.9335376100204066e+01  5.8829516999572647e+01  5.7967950596305641e+01  5.6834700827248504e+01  5.4892719821205205e+01  5.2318636215519064e+01  4.8257852924154172e+01  4.1179193280210143e+01  1.6242634666807628e+01  0.0000000000000000e+00  0.0000000000000000e+00  0.0000000000000000e+00  8.9539272795301326e+00  3.2258751099169508e+01  1.6263048698507809e+01  1.6128163374460510e+01  1.5943449073783519e+01  1.5806711830496281e+01  1.5519982494913906e+01  1.5287064721019505e+01  1.4972527858315164e+01  1.4926659868155959e+01  1.4122470783609497e+01  1.4035241642411085e+01  1.3759965895699310e+01  1.2620720495110355e+01  1.2871802956886265e+01  1.0276420164608053e+01  1.1947445959844901e+01  0.0000000000000000e+00  0.0000000000000000e+00  0.0000000000000000e+00  0.0000000000000000e+00  0.0000000000000000e+00  0.0000000000000000e+00  0.0000000000000000e+00  0.0000000000000000e+00  0.0000000000000000e+00  0.0000000000000000e+00  0.0000000000000000e+00  0.0000000000000000e+00  0.0000000000000000e+00  0.0000000000000000e+00  0.0000000000000000e+00  0.0000000000000000e+00  0.0000000000000000e+00  0.0000000000000000e+00  0.0000000000000000e+00  0.0000000000000000e+00  0.0000000000000000e+00  0.0000000000000000e+00  0.0000000000000000e+00  0.0000000000000000e+00  0.0000000000000000e+00  0.0000000000000000e+00  0.0000000000000000e+00  0.0000000000000000e+00  0.0000000000000000e+00  0.0000000000000000e+00  1.0602870859486547e+01  1.4445154586035352e+01  1.3198007246955710e+01  1.4380980295757821e+01  1.5177486415187344e+01  1.5621077946206716e+01  1.5708001886984222e+01  1.6375225464034457e+01  1.6517020418711606e+01  1.6634965712319289e+01  1.6617032144229132e+01  1.6615745888140861e+01  1.6561481771483844e+01  1.6536676248116787e+01  1.6342287958057380e+01  1.3595120422244113e+01  1.5021499200210561e+01  1.7306791102765462e+01  1.6581926943623223e+01  1.2426916478754107e+01  1.7936227012900829e+01  1.9203889331055500e+01  1.1810551147264777e+01  9.5676962882922414e+00  6.3919930432117376e+00  1.5049507286846705e+01  -7.0849524219597155e+00  -6.4102673785334909e+00  1.0443310886163435e+01  2.1524753607580948e+01  2.2366241487087752e+01  1.7955564612584137e+01  2.7384235096864220e+01  2.3252987106122802e+01  -4.5868666606385588e+01  -2.2416373079138520e+01  1.3783389451564007e+01  1.5266660386271031e+01  2.0110437722213948e+01  3.0808369587052866e+01  3.4827839008351077e+01  2.5461614366092643e+01  -2.2955339544542923e+01  1.7780700804026575e+00  -5.4692733611880826e+01  -2.8163984155085309e+01  9.9318184726799998e+00  1.4786995567608580e+01  -4.0994870878080697e+01  -5.1378921403816712e+01  1.4421502390062880e+01  2.4440868952431856e+01  3.3446176489273519e+01  4.0868953516837941e+01  1.6967267666225467e+01  -5.1423714833047711e+01  -4.3826690856568270e+01  -2.4301361924877796e+01  -1.3228951115719381e+01  -3.6400381130582782e-01  4.9604126218921065e+00  -3.5858302759796379e+00  4.2564393864027885e+01  -3.3396792589976272e+01  -4.1949487475770979e+01  1.8850578179423369e+01  2.4106830820528483e+01  3.0321111547848915e+01  -1.7953077304028817e+01  -4.1198141929490170e+01  9.6805960530559023e+00  8.8265845893539563e+00  -4.5802058696435637e+01  -4.8391338870106907e+01  3.5757097720437393e+01  4.1973502329650529e+01  4.8007674727728535e+01  -1.7791224646756646e+01  1.3874927836166677e+01  2.9422762527412733e+01  1.6080514976272589e+01  -1.5806687093401205e+01  -2.9782566974505425e+01  -2.8096660952938382e+01  -4.5901564218988128e+01  -4.4485932283303264e+01  1.4082348010018331e+01  1.5629052011686641e+01  -4.4718120868807894e+01  1.5371945044905631e+01  5.0538646108403064e+01  4.1583495269849962e+01  3.6447306473875156e+00  -4.0973443158586225e+00  1.7629947048577808e+01  2.0839372785085494e+01  -3.4256699835019631e+01  -1.2381869688086013e+01  -3.0518775535107284e+01  -3.7181905450417915e+01  2.0878620959535463e-01  2.0984166573113029e+01  2.6832628817458236e+01  -4.0773209721889735e+01  3.9875706846587647e+01  -2.4586319970822352e+01  -1.9455884201426709e+01  -4.6102816605464632e+01  2.3603000405071814e+01  2.9824023263965326e+01  3.3351770637389187e+01  -4.5855147697843009e+01  6.8092611403561847e+00  1.0531545467878995e+01  4.3984801505573465e+01  4.7991051376003405e+01  1.8341655955687393e+01  8.6709133688569491e+00  3.6299905262957139e+01  -4.4905771214965142e+01  5.1856879907009166e+01  -3.0158284300862775e+01  -3.0211851495305442e+01  1.0544450498731173e+01  1.5539361132619728e+01  9.6193412850557802e+00  1.4382561354997552e+01  1.3586264687916970e+01  -4.3044903074541715e+01  -9.6709222189731214e-01  1.7201106730403772e+01  -2.7281727150125650e+00  5.9386530348185147e+00  -1.8647398684926387e+01  -1.7923360133219550e+01  5.4645704782211979e+01  -4.2214452339894208e+01  5.0525242767756623e+01  3.4259357905857193e+01  1.7388917692732676e+01  -4.2700477884154324e+01  1.7795864464746941e+01  -2.9323051857772285e+01  -2.7378992800612952e+01  1.4975724480598416e+01  -4.5120040825475954e+01  1.3804143529340914e+01  -6.0525958330184624e+00  -1.2269594204180441e+01  -4.6437454625607749e+01  1.2572436552843145e+01  -4.2056718313735985e+01  1.1413922073190099e+01  -1.8449019522119325e+01  -3.0497435037029160e+01  -3.1767634786336355e+01  1.1951448001303875e+01  -3.5778554404247025e+01  1.8767552690092565e+01  3.7850562409929025e+00  1.2521026242317221e+01  -1.2303216385715551e+01  -4.5171047846488825e+01  1.3735153523762529e+01  2.5085853184828437e+01  -3.3571353101598454e+01  -3.6324819333388746e+01  1.8369690361391282e+01  -4.0724219303530063e+01  2.7836864061938176e+01  1.4003425930683767e+01  1.6945613631816133e+01  1.4941298899799722e+01  -2.6065662957713823e+01  -1.9872105358833139e+01  3.8440509110174368e+01  5.6263213011350132e+01  4.0744442861046373e+01  1.3123770466268260e+01  8.5071458691528949e+00  9.6833830102293685e+00  8.2682436050160888e+00  1.0010982597656280e+01  1.1266068792737769e+01  3.1429400354556932e+01  2.1782424458957344e+01  1.4216050207475783e+01  -3.0036760059630804e+01  1.8996098840287193e+01  1.0968697643468646e+01  1.2594953873623922e+01  3.3137236862378202e+01  -2.1460060747626166e+01  1.6426825047142586e+01  4.6543317083339630e+01  2.0745995466376076e+01  -1.7320314135275434e+00  -4.3729187549068229e+01  1.7721029791268524e+01  -4.3562535951538933e+01  -1.7460704098160287e-01  4.7243096572426090e+01  3.4438469228017425e+01  1.5587440445309509e+01  1.6236186541037981e+01  -4.4554631165999176e+01  1.7074840628499157e+01  2.3744944050591692e+00  8.5180530688994149e-01  -4.1991782896916526e+01  5.0736741721443920e+01  -3.7980609717219174e+01  -4.0554901576689787e+01  -2.4810202299113563e+01  2.6869328438000817e+01  2.6799301366001806e+01  1.4987545962107697e+01  2.0079588992631720e+01  1.9621469598463527e+01  2.5879681053646902e+01  5.6759264654172199e+00  2.9379590480782191e+01  -1.7206405119346112e+01  -1.2184005487485182e+01  -2.3123620094173098e+01  4.2820788852656882e+01  1.6605913962847083e+01  1.9264470780229061e+01  1.6829614698532716e+01  1.5765705509081819e+01  -3.0207132213671148e+01  -1.6428763215662625e+00  1.4485451351963301e+01  1.1130742123939381e+01  -5.4387300540753706e+01  -4.3857179296368230e+01  -4.6601096253076662e+01  -1.8122247856025758e+01  6.8430883615352265e+00  -3.6755742804892058e+01  -4.9680322437235340e+01  -4.2059117926017244e+01  1.6021581298795443e+01  -1.8257221369013934e+01  -3.0194608214067824e+01  1.0912285664513819e+01  -8.2016167000261113e+00  -3.9788578737930031e+01  1.3288023714064590e+01  -3.8401584463988698e+01  5.4729059973708303e+01  -4.7273604043317079e+01  5.6447124447687642e+00  -4.0485395144264075e+01  -3.5627974416463219e+00  1.4403941652359089e+01  2.3483548822100786e+01  -3.1609393508834920e+01  1.2079957180396493e+01  1.2593386047104881e+01  1.4392509015317231e-01  -3.9470141809867918e+01  -4.0807794980205450e+01  2.6160262884848880e+01  -4.3821593088748713e+01  -2.9775588395729848e+01  1.0501110587984963e+01  -3.0185100934811480e+01  2.0862636134102132e+01  9.7895488344034103e+00  1.1922290024065871e+01  3.2685943551802659e+01  1.5583289774270254e+01  1.3764335417325663e+01  2.8908588483240752e+01  1.0940059639133707e+01  4.7294607922420369e+00  1.2256031952730032e+01  5.6534910076073380e+01  -5.2376441005295675e+01  3.6892543214005883e+01  -4.5981340250765584e+01  -4.1534977503955325e+01  3.7404450284115569e+01  4.8590070328833690e+01  4.4875573774714852e+01  5.0255299458910105e+00  -4.8132741000499536e+01  2.2931487702491324e+01  1.9869374534349944e+01  -4.2036140694488680e+01  -1.1380387742455751e+00  3.4181725087073865e+01  -1.8043067743280609e+01  -1.8721039387390910e+01  -3.0608828508558187e+01  -3.2626159413465132e+01  2.7174711613284451e+01  -1.8024588619166082e+01  1.3834001786077023e+01  5.2762223613740595e+01  -3.0747444028727596e+01  5.6580839817296955e+01  1.2350090752051047e+01  2.2447980797313740e+01  -2.9283119504157938e+01  2.2957672763585609e+01  3.8525010222143962e+01  -4.8352738351577536e+01  6.5725297911949587e+00  -2.8315646370796710e+01  -9.7083339324569380e+00  1.7793161928079122e+01  -1.7714634187212180e+01  8.9671318825976232e-01  1.2105351609059646e+01  1.3877641628910204e+01  1.0200057585478708e+01  1.2481520346826255e+01  1.4847408226500171e+01  -3.5800982064914471e+01  -1.9427612403976028e+01  1.1770127473701528e+01  1.7790225091344080e+01  2.0354400974086506e+01  1.7614766575068405e+01  -2.9704882580983277e+01  1.3785259163252924e+01  7.7506395375410424e+00  -4.8195733776993499e+01  1.4659829485792269e+01  2.2259968370455901e+01  1.6293841712417553e+01  -4.0139064289060990e+01  1.8120936700257349e+01  -1.8515717928482267e+01  3.0235343539949977e+01  9.2305383995788635e+00  8.6403652428404809e-01  1.7807152499101736e+01  -4.6267745603920567e+01  -3.2126756127773476e+01  -1.2323319767349995e+01  -3.4376835244913195e+01  -2.2513222506010337e+01  -2.4772045310233644e+01  -4.4075425241243082e+01  -5.5106249014649528e+01  -4.7191898624261874e+01  -4.3433088402446820e+01  2.1294868671752937e+01  1.7578899989508969e+01  -3.7781145469100212e+00  1.7884547075226465e+01  -1.8574197916960564e+01  1.3656204443478959e+01  6.9663316157520017e+00  1.6255667407804967e+01  -4.4230117499673177e+01  3.5266895427914591e+01  -4.7065807619316431e+01  1.8994311527885216e+01  -4.4053227420093968e+01  3.5709221314943242e+01  1.6581686643466593e+01  3.9589253349312479e+0