<?xml version="1.0"?>
<VTKFile type="UnstructuredGrid"  version="0.1"  >
<UnstructuredGrid>
<Piece  NumberOfPoints="6292" NumberOfCells="12120">
<Points>
<DataArray  type="Float64"  NumberOfComponents="3"  format="ascii">0 0 0  0.0104733 0.00809002 0  0.0172427 0.00976466 0  0.0233983 0.0103763 0  0.0292338 0.0104335 0  0.034863 0.0101332 0  0.0403441 0.009576599999999999 0  0.045712 0.00882376 0  0.0509892 0.00791388 0  0.0561915 0.00687422 0  0.0613303 0.00572466 0  0.0664143 0.00448023 0  0.07145029999999999 0.00315262 0  0.0764437 0.00175116 0  0.08139879999999999 0.000283434 0  0.0863193 -0.00124431 0  0.0912082 -0.0028268 0  0.096068 -0.00445961 0  0.100901 -0.0061389 0  0.105709 -0.00786135 0  0.110494 -0.00962409 0  0.115257 -0.0114246 0  0.119999 -0.0132605 0  0.124723 -0.0151299 0  0.129427 -0.017031 0  0.134115 -0.0189621 0  0.138786 -0.0209218 0  0.143442 -0.0229086 0  0.148082 -0.0249215 0  0.152708 -0.0269592 0  0.15732 -0.0290207 0  0.161919 -0.0311052 0  0.166506 -0.0332116 0  0.17108 -0.0353391 0  0.175642 -0.0374871 0  0.180193 -0.0396547 0  0.184733 -0.0418413 0  0.189263 -0.0440463 0  0.193782 -0.046269 0  0.198291 -0.048509 0  0.202791 -0.0507657 0  0.207281 -0.0530386 0  0.211762 -0.0553272 0  0.216235 -0.0576311 0  0.220699 -0.0599498 0  0.225154 -0.062283 0  0.229601 -0.0646303 0  0.234041 -0.0669912 0  0.238473 -0.06936539999999999 0  0.242897 -0.0717527 0  0.247314 -0.0741526 0  0.251723 -0.07656499999999999 0  0.256126 -0.0789893 0  0.260522 -0.0814255 0  0.264912 -0.08387319999999999 0  0.269294 -0.08633209999999999 0  0.273671 -0.08880200000000001 0  0.278041 -0.09128260000000001 0  0.282406 -0.0937738 0  0.286764 -0.09627520000000001 0  0.291116 -0.09878670000000001 0  0.295463 -0.101308 0  0.299804 -0.103839 0  0.30414 -0.106379 0  0.308471 -0.108929 0  0.312796 -0.111488 0  0.317116 -0.114055 0  0.321431 -0.116632 0  0.325741 -0.119217 0  0.330047 -0.12181 0  0.334347 -0.124411 0  0.338643 -0.12702 0  0.342935 -0.129638 0  0.347222 -0.132263 0  0.351504 -0.134895 0  0.355782 -0.137536 0  0.360056 -0.140183 0  0.364326 -0.142838 0  0.368592 -0.145499 0  0.372854 -0.148168 0  0.377112 -0.150843 0  0.381366 -0.153525 0  0.385616 -0.156214 0  0.389863 -0.158909 0  0.394105 -0.16161 0  0.398345 -0.164318 0  0.40258 -0.167032 0  0.406813 -0.169752 0  0.411041 -0.172478 0  0.415267 -0.175209 0  0.419489 -0.177946 0  0.423708 -0.180689 0  0.427923 -0.183438 0  0.432136 -0.186192 0  0.436345 -0.188951 0  0.440552 -0.191716 0  0.444755 -0.194486 0  0.448955 -0.197261 0  0.453153 -0.200041 0  0.457347 -0.202826 0  0.461539 -0.205616 0  0.465728 -0.208411 0  0.469914 -0.21121 0  0.474098 -0.214015 0  0.478279 -0.216823 0  0.482457 -0.219637 0  0.486632 -0.222455 0  0.490805 -0.225277 0  0.494976 -0.228104 0  0.499144 -0.230935 0  0.503309 -0.23377 0  0.507472 -0.23661 0  0.511633 -0.239454 0  0.515791 -0.242301 0  0.519947 -0.245153 0  0.524101 -0.248009 0  0.528253 -0.250869 0  0.532402 -0.253733 0  0.5365490000000001 -0.2566 0  0.540693 -0.259472 0  0.544836 -0.262347 0  0.548976 -0.265226 0  0.553114 -0.268108 0  0.55725 -0.270995 0  0.561384 -0.273885 0  0.565516 -0.276778 0  0.569646 -0.279675 0  0.573774 -0.282576 0  0.5779 -0.28548 0  0.582024 -0.288388 0  0.5861459999999999 -0.291299 0  0.590265 -0.294213 0  0.594383 -0.297131 0  0.598499 -0.300052 0  0.602613 -0.302977 0  0.606726 -0.305904 0  0.610836 -0.308836 0  0.614944 -0.31177 0  0.619051 -0.314708 0  0.623155 -0.317648 0  0.627258 -0.320593 0  0.631359 -0.32354 0  0.635458 -0.32649 0  0.639555 -0.329444 0  0.6436500000000001 -0.332401 0  0.647744 -0.335361 0  0.651836 -0.338324 0  0.655926 -0.34129 0  0.660014 -0.34426 0  0.6641 -0.347232 0  0.668185 -0.350208 0  0.6722669999999999 -0.353187 0  0.6763479999999999 -0.356169 0  0.680427 -0.359154 0  0.684505 -0.362142 0  0.68858 -0.365133 0  0.692654 -0.368127 0  0.696726 -0.371125 0  0.700796 -0.374125 0  0.704865 -0.377129 0  0.708931 -0.380135 0  0.712996 -0.383145 0  0.717059 -0.386158 0  0.72112 -0.389174 0  0.725179 -0.392194 0  0.729237 -0.395216 0  0.7332920000000001 -0.398242 0  0.7373459999999999 -0.401271 0  0.741398 -0.404303 0  0.745448 -0.407338 0  0.749497 -0.410376 0  0.753543 -0.413418 0  0.757587 -0.416463 0  0.76163 -0.419511 0  0.765671 -0.422563 0  0.76971 -0.425618 0  0.773746 -0.428676 0  0.7777809999999999 -0.431738 0  0.781814 -0.434803 0  0.785845 -0.437871 0  0.789874 -0.440943 0  0.793901 -0.444018 0  0.797926 -0.447097 0  0.801949 -0.450179 0  0.80597 -0.453265 0  0.809989 -0.456354 0  0.814006 -0.459447 0  0.818021 -0.462544 0  0.822033 -0.465644 0  0.826044 -0.468748 0  0.830052 -0.471856 0  0.834058 -0.474967 0  0.838062 -0.478083 0  0.842063 -0.481202 0  0.846063 -0.484325 0  0.85006 -0.487452 0  0.854055 -0.490583 0  0.858048 -0.493718 0  0.862038 -0.496857 0  0.866026 -0.5 0  0.86131 -0.498118 0  0.856596 -0.496231 0  0.851885 -0.494341 0  0.847176 -0.492447 0  0.842469 -0.490549 0  0.837765 -0.488647 0  0.833063 -0.486741 0  0.828363 -0.484831 0  0.823665 -0.482917 0  0.81897 -0.481 0  0.814277 -0.479079 0  0.809585 -0.477154 0  0.8048959999999999 -0.475225 0  0.8002089999999999 -0.473293 0  0.795524 -0.471358 0  0.790842 -0.469418 0  0.786161 -0.467475 0  0.781482 -0.465529 0  0.776805 -0.463579 0  0.77213 -0.461626 0  0.767458 -0.459669 0  0.762787 -0.457709 0  0.758118 -0.455745 0  0.753451 -0.453778 0  0.748786 -0.451808 0  0.744123 -0.449835 0  0.739462 -0.447858 0  0.734803 -0.445878 0  0.730145 -0.443894 0  0.72549 -0.441908 0  0.720836 -0.439918 0  0.716184 -0.437925 0  0.711534 -0.435928 0  0.706886 -0.433929 0  0.70224 -0.431926 0  0.697595 -0.42992 0  0.692953 -0.427911 0  0.688312 -0.425899 0  0.683673 -0.423884 0  0.679036 -0.421866 0  0.6744 -0.419844 0  0.669767 -0.41782 0  0.665135 -0.415792 0  0.660505 -0.413761 0  0.655877 -0.411727 0  0.65125 -0.40969 0  0.646626 -0.40765 0  0.642003 -0.405607 0  0.637382 -0.40356 0  0.632762 -0.401511 0  0.628145 -0.399458 0  0.623529 -0.397403 0  0.618915 -0.395344 0  0.614303 -0.393282 0  0.609693 -0.391217 0  0.605085 -0.389148 0  0.600478 -0.387077 0  0.595873 -0.385002 0  0.591271 -0.382924 0  0.58667 -0.380843 0  0.58207 -0.378759 0  0.577473 -0.376672 0  0.572878 -0.374581 0  0.568284 -0.372487 0  0.563692 -0.37039 0  0.559103 -0.368289 0  0.554515 -0.366185 0  0.549929 -0.364078 0  0.545345 -0.361967 0  0.540763 -0.359853 0  0.536183 -0.357736 0  0.531605 -0.355615 0  0.527029 -0.35349 0  0.522455 -0.351362 0  0.517884 -0.34923 0  0.513314 -0.347095 0  0.508746 -0.344956 0  0.504181 -0.342814 0  0.499617 -0.340668 0  0.495056 -0.338518 0  0.490497 -0.336364 0  0.48594 -0.334207 0  0.481385 -0.332045 0  0.476833 -0.32988 0  0.472283 -0.327711 0  0.467735 -0.325537 0  0.46319 -0.32336 0  0.458647 -0.321179 0  0.454106 -0.318993 0  0.449568 -0.316803 0  0.445032 -0.314609 0  0.440499 -0.312411 0  0.435968 -0.310208 0  0.43144 -0.308001 0  0.426914 -0.305789 0  0.422391 -0.303573 0  0.417871 -0.301352 0  0.413353 -0.299127 0  0.408838 -0.296896 0  0.404326 -0.294661 0  0.399817 -0.292421 0  0.395311 -0.290176 0  0.390807 -0.287926 0  0.386307 -0.285671 0  0.38181 -0.28341 0  0.377315 -0.281144 0  0.372824 -0.278873 0  0.368336 -0.276597 0  0.363851 -0.274314 0  0.359369 -0.272027 0  0.354891 -0.269733 0  0.350416 -0.267434 0  0.345944 -0.265129 0  0.341476 -0.262817 0  0.337012 -0.2605 0  0.332551 -0.258176 0  0.328093 -0.255846 0  0.32364 -0.25351 0  0.31919 -0.251167 0  0.314744 -0.248817 0  0.310302 -0.24646 0  0.305864 -0.244097 0  0.30143 -0.241726 0  0.297001 -0.239349 0  0.292575 -0.236964 0  0.288154 -0.234571 0  0.283737 -0.232171 0  0.279325 -0.229763 0  0.274917 -0.227347 0  0.270514 -0.224924 0  0.266115 -0.222492 0  0.261722 -0.220051 0  0.257333 -0.217603 0  0.252949 -0.215145 0  0.248571 -0.212679 0  0.244198 -0.210203 0  0.23983 -0.207719 0  0.235467 -0.205224 0  0.23111 -0.202721 0  0.226759 -0.200207 0  0.222413 -0.197683 0  0.218074 -0.195149 0  0.21374 -0.192605 0  0.209413 -0.19005 0  0.205092 -0.187483 0  0.200778 -0.184906 0  0.19647 -0.182317 0  0.192169 -0.179716 0  0.187875 -0.177103 0  0.183588 -0.174478 0  0.179309 -0.17184 0  0.175037 -0.16919 0  0.170772 -0.166525 0  0.166516 -0.163847 0  0.162268 -0.161156 0  0.158028 -0.158449 0  0.153796 -0.155728 0  0.149574 -0.152991 0  0.14536 -0.150239 0  0.141156 -0.147471 0  0.136961 -0.144686 0  0.132777 -0.141883 0  0.128602 -0.139063 0  0.124439 -0.136225 0  0.120286 -0.133367 0  0.116145 -0.13049 0  0.112015 -0.127592 0  0.107898 -0.124674 0  0.103793 -0.121733 0  0.0997015 -0.118769 0  0.09562370000000001 -0.115782 0  0.0915603 -0.11277 0  0.08751200000000001 -0.109731 0  0.08347930000000001 -0.106666 0  0.07946309999999999 -0.103572 0  0.0754643 -0.100448 0  0.0714837 -0.0972922 0  0.0675225 -0.09410300000000001 0  0.0635817 -0.0908783 0  0.0596627 -0.087616 0  0.055767 -0.08431329999999999 0  0.0518962 -0.0809675 0  0.0480522 -0.07757509999999999 0  0.0442373 -0.0741325 0  0.040454 -0.07063510000000001 0  0.0367054 -0.0670777 0  0.032995 -0.0634541 0  0.0293272 -0.0597566 0  0.0257075 -0.0559759 0  0.0221425 -0.0521003 0  0.018641 -0.0481149 0  0.0152144 -0.0439996 0  0.0118785 -0.0397273 0  0.008655899999999999 -0.0352588 0  0.00558128 -0.030534 0  0.00271302 -0.0254517 0  0.000164898 -0.0198149 0  -0.00176951 -0.0131151 0  -10 0 0  0 10 0  10 0 0  0 -10 0  0.00523664 0.00404501 0  -0.000884755 -0.00655757 0  -9.95185 0.980171 0  -9.80785 1.9509 0  -9.5694 2.90285 0  -9.238799999999999 3.82683 0  -8.81921 4.71397 0  -8.3147 5.5557 0  -7.7301 6.34393 0  -7.07107 7.07107 0  -6.34393 7.7301 0  -5.5557 8.3147 0  -4.71397 8.81921 0  -3.82683 9.238799999999999 0  -2.90285 9.5694 0  -1.9509 9.80785 0  -0.980171 9.95185 0  0.980171 9.95185 0  1.9509 9.80785 0  2.90285 9.5694 0  3.82683 9.238799999999999 0  4.71397 8.81921 0  5.5557 8.3147 0  6.34393 7.7301 0  7.07107 7.07107 0  7.7301 6.34393 0  8.3147 5.5557 0  8.81921 4.71397 0  9.238799999999999 3.82683 0  9.5694 2.90285 0  9.80785 1.9509 0  9.95185 0.980171 
[...]
<PointData  Scalars="u"> 
<DataArray  type="Float64"  Name="u"  format="ascii">1.0374997241410508e+01  -1.2380161026204240e+01  -2.2616344031504372e+01  -2.9645363015619072e+01  -3.2420545989109847e+01  -3.1965313220399192e+01  -3.2998486980601839e+01  -3.3866707767379609e+01  -3.4126847715558654e+01  -3.4194709715873088e+01  -3.4331450363045072e+01  -3.4208549943401721e+01  -3.4071972889084492e+01  -3.4017834434853150e+01  -3.3947770801968787e+01  -3.3889776308542551e+01  -3.3855497316970485e+01  -3.3821313918011434e+01  -3.3783856423506293e+01  -3.3754420530723927e+01  -3.3734466828660736e+01  -3.3716706606781514e+01  -3.3708806903925861e+01  -3.3705082703561331e+01  -3.3708026095011945e+01  -3.3716835660025211e+01  -3.3732430464956451e+01  -3.3754812064697148e+01  -3.3784208823923983e+01  -3.3821193061861841e+01  -3.3865414640803756e+01  -3.3909154422301015e+01  -3.3955795084641601e+01  -3.4004088357084001e+01  -3.4050657709383117e+01  -3.4099257117666198e+01  -3.4132919682870003e+01  -3.4157614929868011e+01  -3.4159518000091225e+01  -3.4157583633892372e+01  -3.4114479791765639e+01  -3.4056421571155497e+01  -3.3988771131029445e+01  -3.3898577740459281e+01  -3.3789729628866922e+01  -3.3647380326162065e+01  -3.3513198927673329e+01  -3.3352665256287587e+01  -3.3190788758443531e+01  -3.3040222602553619e+01  -3.2883816293259422e+01  -3.2735769670744475e+01  -3.2600137850871185e+01  -3.2481833737318127e+01  -3.2394432567416516e+01  -3.2334115671863891e+01  -3.2288613613205875e+01  -3.2275552626586204e+01  -3.2309674690193631e+01  -3.2365304063630269e+01  -3.2460881738991674e+01  -3.2569498453630921e+01  -3.2636820107931868e+01  -3.2812684595796640e+01  -3.2974488033265189e+01  -3.3066953039221993e+01  -3.3252846516752250e+01  -3.3424332849699894e+01  -3.3466883200817414e+01  -3.3644285334429959e+01  -3.3808095157701217e+01  -3.4028704923328917e+01  -3.4165282903790569e+01  -3.4109176955855531e+01  -3.4174551913610486e+01  -3.4260736150634891e+01  -3.4322546403071556e+01  -3.4341338041836345e+01  -3.4316061376349481e+01  -3.4210818364957021e+01  -3.4103320944675765e+01  -3.3985693588861864e+01  -3.3835202294649015e+01  -3.3696160000704523e+01  -3.3557813293544335e+01  -3.3407979866591724e+01  -3.3246512448327465e+01  -3.3074320581037199e+01  -3.2943496525870636e+01  -3.2819464746030214e+01  -3.2724162310624209e+01  -3.2638562117521388e+01  -3.2574784984767362e+01  -3.2533309159710079e+01  -3.2523786798290786e+01  -3.2526533357608287e+01  -3.2546175648884976e+01  -3.2574002772646509e+01  -3.2605068463669490e+01  -3.2630750597499521e+01  -3.2644622554936703e+01  -3.2650993788952782e+01  -3.2635300522991699e+01  -3.2608822301515374e+01  -3.2537884448767997e+01  -3.2454128455363509e+01  -3.2351299788120073e+01  -3.2259382112963173e+01  -3.2167814075702644e+01  -3.2062931617160295e+01  -3.1997954965434726e+01  -3.1938028438727429e+01  -3.1893198150018588e+01  -3.1875291679956021e+01  -3.1841737172944388e+01  -3.1813724419273392e+01  -3.1772380367823498e+01  -3.1730776505640932e+01  -3.1689616320665511e+01  -3.1642966982467197e+01  -3.1599948953503556e+01  -3.1558470567794824e+01  -3.1515729854624290e+01  -3.1472030787473425e+01  -3.1426276258790125e+01  -3.1376087793221675e+01  -3.1317504968564123e+01  -3.1258751684531116e+01  -3.1184842940548119e+01  -3.1109853028530924e+01  -3.0998659368768855e+01  -3.0861920466834540e+01  -3.0733177575996628e+01  -3.0563351312218785e+01  -3.0393677658979215e+01  -3.0170125793458002e+01  -2.9960979966751530e+01  -2.9672377039668756e+01  -2.9400616448087256e+01  -2.9094623789601755e+01  -2.8803989292872789e+01  -2.8448718713820842e+01  -2.8127508956426055e+01  -2.7752614297576109e+01  -2.7406980882723328e+01  -2.7015686801935409e+01  -2.6651125790892824e+01  -2.6249369093721302e+01  -2.5880854161118329e+01  -2.5500118940872106e+01  -2.5103747425999590e+01  -2.4739899895985719e+01  -2.4398795992336026e+01  -2.4056349533697411e+01  -2.3754010644629449e+01  -2.3465949412222852e+01  -2.3214657114923494e+01  -2.2996047896961880e+01  -2.2814218067150783e+01  -2.2681604781551759e+01  -2.2591295502321582e+01  -2.2519963592893689e+01  -2.2483796186103994e+01  -2.2530020976732473e+01  -2.2596194219309890e+01  -2.2718694825500155e+01  -2.2809532156035242e+01  -2.3006606965369279e+01  -2.3185133079053635e+01  -2.3380352234796856e+01  -2.3755661773556298e+01  -2.4029675020116319e+01  -2.4386708278481386e+01  -2.4709374253899604e+01  -2.5091647007012782e+01  -2.5341033519619309e+01  -2.5628749046177322e+01  -2.6029409167564687e+01  -2.6499424667390766e+01  -2.6748595157534812e+01  -2.7372593214437330e+01  -2.8148529329234936e+01  -2.8413724776629955e+01  -2.8775562287729635e+01  -2.9214830605482518e+01  -2.9915620836493463e+01  -2.9989360705920358e+01  -3.0301357370071571e+01  -3.0670437785018201e+01  -3.1009820212423147e+01  -3.1186298948079433e+01  -3.1455545289836429e+01  -3.1738552796509502e+01  -3.1784345930784387e+01  -3.1734586824889362e+01  -3.1795274666026511e+01  -3.1905637206207157e+01  -3.1708675669021083e+01  -3.1199660375146870e+01  -3.0141883027417613e+01  -2.5934370922971002e+01  -2.4297442737297335e+01  -2.3469485832046274e+01  -2.4137603563009208e+01  -2.4931088377693719e+01  -2.5248557022143672e+01  -2.5011417784707469e+01  -2.3154318333949576e+01  -2.0705783356343424e+01  -1.7912293087279359e+01  -1.6456904508647604e+01  -1.6741507480729027e+01  -1.8557750797784752e+01  -2.0183930668764244e+01  -2.0675373821165682e+01  -1.9214403042944859e+01  -1.7094612426230832e+01  -1.3522164832258568e+01  -1.0242708395735287e+01  -8.2495342271890895e+00  -8.5843259578355813e+00  -1.0301274150461158e+01  -1.2293794286276508e+01  -1.4298750342606287e+01  -1.5570641387102544e+01  -1.4560927958732002e+01  -1.2781760728968392e+01  -1.1240774076361692e+01  -8.9304852868522477e+00  -7.2149225339937901e+00  -5.1470561183294397e+00  -4.0109430344177524e+00  -4.2643841651632268e+00  -5.4376795427586169e+00  -5.9290828444884687e+00  -6.4072218221062016e+00  -6.5228363157236364e+00  -6.2734913318271772e+00  -5.9291573772652297e+00  -5.9685273447587592e+00  -6.2313140268843981e+00  -6.5376104726640705e+00  -6.5990406957438434e+00  -6.0104130686509016e+00  -4.2862084439681079e+00  -2.6164308878421281e+00  -1.4031490270446567e+00  -3.7576220540228467e-01  1.0648423264569991e-01  -9.2645854286436091e-01  -2.5214087507518861e+00  -3.2441206551569048e+00  -2.7412308881079395e+00  -1.8380793952112162e+00  -4.5554399969453740e-01  1.1685214968630917e+00  2.6745208088902817e+00  3.1414136882576855e+00  2.9303380027122010e+00  1.8828655530319820e+00  3.0625549720130618e-01  -1.2585105094276705e-02  2.6625010882603101e-01  1.0147624885098272e+00  1.8395639973779665e+00  3.3072700914328736e+00  4.6620626102568270e+00  5.7653990594426343e+00  5.7851205652477971e+00  5.1787283052701358e+00  4.1613260194515806e+00  3.2324080315134811e+00  3.6568871110666179e+00  5.2431880882954642e+00  7.3373509161782415e+00  8.7809812598049692e+00  9.3430326722358146e+00  8.9802837023958784e+00  7.7905831928454985e+00  6.6998236116093901e+00  6.7543501295809909e+00  7.7582754878416678e+00  9.4398856270255127e+00  1.0771167573190816e+01  1.1696065387802891e+01  1.1982410036764362e+01  1.1163211723757604e+01  1.0323529722137703e+01  1.0326755430396027e+01  1.0927106051777404e+01  1.1706724250850010e+01  1.2041898364950828e+01  1.2661270090996227e+01  1.3495170730336145e+01  1.3776877121239650e+01  1.3824008739240046e+01  1.3649171695550116e+01  1.3683564085339460e+01  1.3777571627460542e+01  1.3842451595693175e+01  1.4464186188897374e+01  1.4913498247685769e+01  1.5224350062324529e+01  1.5665725082373042e+01  1.5851909824742206e+01  1.6041055964104793e+01  1.6178464449389917e+01  1.6238269517111210e+01  1.6264379585432824e+01  1.6933897988218813e+01  1.7483738427742036e+01  1.7940725592869246e+01  1.8009283023870211e+01  1.8246429055219156e+01  1.8835522761974001e+01  1.8999565196043328e+01  1.9106509084978544e+01  1.9585552814993889e+01  1.9966014438761068e+01  2.0380869399905187e+01  2.0569874605941052e+01  2.0474264844500301e+01  2.0888085452513678e+01  2.1526093824461377e+01  2.1943678263041246e+01  2.2265336382256340e+01  2.2608318436043053e+01  2.2997353184982273e+01  2.3011487652517832e+01  2.3357925533372796e+01  2.3469913982302110e+01  2.4014272874478475e+01  2.4527183859711133e+01  2.5298775435909175e+01  2.5437859237106604e+01  2.5808758993025041e+01  2.6058840128402487e+01  2.6579927865395597e+01  2.6889038166188509e+01  2.7008417222072662e+01  2.7662564239241735e+01  2.8359535411622630e+01  2.8617449151977908e+01  2.9200468656712271e+01  2.9721519771924768e+01  2.9864338103632157e+01  3.0322405741144184e+01  3.1174218165126753e+01  3.1542098880618976e+01  3.2086495127026829e+01  3.2509874241833408e+01  3.2891286223760957e+01  3.3365591289315994e+01  3.3510606971655392e+01  3.4077253131622406e+01  3.4673035149430859e+01  3.5124509323055271e+01  3.5638819090794634e+01  3.6514199045164524e+01  3.6915603809648211e+01  3.7413379907578594e+01  3.8057904811135494e+01  3.8514708215987518e+01  3.9079153014262047e+01  3.9355999242129570e+01  3.9893895918474513e+01  4.0693591495524188e+01  4.1194468030785394e+01  4.1894086471419918e+01  4.2493459764458144e+01  4.2760329240568431e+01  4.3347759865089138e+01  4.3816929173908967e+01  4.4725296324875238e+01  4.5444306914303425e+01  4.5841916102133546e+01  4.6469660838225678e+01  4.7109516002267760e+01  4.7729788606446654e+01  4.8318131036614666e+01  4.8812273527749049e+01  4.9435106588145700e+01  4.9898456764148328e+01  5.0339525279524253e+01  5.0830823611357161e+01  5.1125783532697255e+01  5.1467996176538428e+01  5.1670985000920815e+01  5.1706288710908844e+01  5.1664575247864725e+01  5.1528985890338824e+01  5.1201669029578959e+01  5.0487963875455989e+01  4.9500668414753420e+01  4.7497061768692241e+01  4.4674921762023963e+01  4.0008266569326501e+01  3.2071223384712908e+01  2.9763127797339037e+00  0.0000000000000000e+00  0.0000000000000000e+00  0.0000000000000000e+00  -2.8631497720629593e+00  2.2473615921815600e+01  2.8986906348002184e+00  2.8064268681011897e+00  2.6506856210274101e+00  2.5985207850622931e+00  2.4276169951676230e+00  2.1878265743768841e+00  1.9694585045770816e+00  2.0181755941668285e+00  1.7177395877930570e+00  1.5596052757069614e+00  1.3892949679083286e+00  1.1377043860031586e+00  1.1545045137881418e+00  6.6963878055788728e-01  5.2676326818561314e-01  0.0000000000000000e+00  0.0000000000000000e+00  0.0000000000000000e+00  0.0000000000000000e+00  0.0000000000000000e+00  0.0000000000000000e+00  0.0000000000000000e+00  0.0000000000000000e+00  0.0000000000000000e+00  0.0000000000000000e+00  0.0000000000000000e+00  0.0000000000000000e+00  0.0000000000000000e+00  0.0000000000000000e+00  0.0000000000000000e+00  0.0000000000000000e+00  0.0000000000000000e+00  0.0000000000000000e+00  0.0000000000000000e+00  0.0000000000000000e+00  0.0000000000000000e+00  0.0000000000000000e+00  0.0000000000000000e+00  0.0000000000000000e+00  0.0000000000000000e+00  0.0000000000000000e+00  0.0000000000000000e+00  0.0000000000000000e+00  0.0000000000000000e+00  0.0000000000000000e+00  1.3266722184917112e+00  2.5304202199826480e+00  2.1539553495598800e+00  2.3647730576637112e+00  2.6175974086888369e+00  2.8684381935775844e+00  2.7574370558461103e+00  3.1774613617672554e+00  3.2695325146162544e+00  3.0860568722164898e+00  3.2052345731580454e+00  3.2673656734620660e+00  3.1610597527436117e+00  3.1607844060412975e+00  3.0838294449946821e+00  3.6206907212260875e-01  1.7084235437152970e+00  3.7285771100983012e+00  3.1091583380497778e+00  8.8607227119700516e-01  4.3474312728287758e+00  5.2352685263696648e+00  -1.6915216742302182e+00  -4.9363004501931149e+00  -6.6873613212060610e+00  1.7372262901503404e+00  -1.7569640406787972e+01  -1.6137448018595386e+01  -2.7367087972580508e+00  8.1502589188756360e+00  8.5687414322010564e+00  2.7922892385552309e+00  1.4273977263420655e+01  9.8122351122535392e+00  -3.2742682207978341e+01  -4.1771424141296073e+01  2.2148889853483684e+00  -8.1965865263332616e-01  7.2040155808451303e+00  1.8698295094563541e+01  2.2612279285685602e+01  1.2373066150214516e+01  -2.7595107861773364e+01  -1.1620034659402114e+01  -3.9232493343108004e+01  -4.7077346819144395e+01  -4.8220516444920012e+00  -1.1679863355836392e+01  -3.2597418720801080e+01  -3.6870142117034611e+01  2.1248946956955761e+00  1.2727215469080646e+01  2.2079588642656052e+01  2.9672790219447656e+01  3.5591369522164360e+00  -3.5795032212644024e+01  -3.5774902238014079e+01  -3.6371212747869933e+01  -2.9918914431285092e+01  -1.4401703996024466e+01  -7.1373782175487079e+00  -1.6646860634029601e+01  3.1238875514775781e+01  -3.6711599198237074e+01  -3.3908989851794949e+01  7.1730117295941511e+00  1.2753009611853049e+01  1.8992876488155641e+01  -3.6737823029651786e+01  -3.9678579549207754e+01  -1.9983289072548818e+00  -3.4826485012487556e+00  -3.3353897333716795e+01  -3.3103235750021788e+01  2.4560129641004796e+01  3.1115685527598327e+01  3.7583219947893056e+01  -3.3889556534728470e+01  2.1149580942931467e+00  1.6765601839028680e+01  2.7483867690494757e+00  -3.0280017320712581e+01  -3.5701020629836130e+01  -3.5680270916494734e+01  -2.8559751335104075e+01  -2.8314012571917655e+01  -3.6317007885406341e+01  2.4470903383593301e+00  -3.0926496573928453e+01  2.0675532418665417e+00  4.0337227783542843e+01  3.0249715718943211e+01  -7.1843462647383571e+00  -1.3910756772361445e+01  6.0446593727290461e+00  9.5800085179717733e+00  -3.4960585679951947e+01  -2.0671239108147592e+01  -3.5640114993351332e+01  -3.3060615685218465e+01  -1.3042442059885222e+01  7.2712607543151853e+00  1.5533867935434179e+01  -3.1547415588471413e+01  2.8826615898240167e+01  -3.5472310060339510e+01  -3.4574411751742232e+01  -3.3816191305087585e+01  1.2469321946798527e+01  1.8455121019814605e+01  2.2031289150405666e+01  -3.2469139481306904e+01  -4.5587916155337913e+00  -1.1656798277873577e+00  3.3253448215398528e+01  3.7673066801992078e+01  5.7898920283792092e+00  2.5468996939267878e+00  2.4991545934515823e+01  -2.8725707032585536e+01  4.1946851749191588e+01  -3.5108365530832714e+01  -3.4183495728965667e+01  -1.2028865472383467e+01  -1.9622512573401414e+00  -7.9703733387688906e+00  -8.3140031803228247e+00  3.4537053241344968e+00  -3.1927449064675166e+01  -1.0681519873364977e+01  3.6628442991368839e+00  -3.1831092644979073e+01  -5.0852687707450990e+01  -3.3585779051547931e+01  -3.3675617292884709e+01  4.5138728996739474e+01  -2.5073824160510142e+01  4.0456609442002382e+01  2.2618431798722149e+01  3.4366863673491799e+00  -2.6962250851147907e+01  4.4747829430759882e+00  -3.3333590609678254e+01  -3.3939217689583757e+01  3.0327353435472055e+00  -3.0490082537426005e+01  1.1610089501895553e+00  -1.4279419831532323e+01  -1.9398444078951265e+01  -3.4618867431087402e+01  6.9145044655618060e-01  -2.5178037076681683e+01  1.2204304517006033e+00  -3.4232533604691071e+01  -3.4075748330871100e+01  -3.2733633661828641e+01  1.8711565639512697e+00  -3.0691431241871410e+01  7.4111136812228393e+00  -6.9856903702910209e+00  1.7822739998389181e+00  -2.7016435341333906e+01  -3.0637412662364387e+01  3.8543649308753752e-01  1.3941320621675496e+01  -3.2936085731970955e+01  -3.2679664894977570e+01  4.6238781191014349e+00  -2.4415497071809988e+01  1.6456618334009718e+01  7.3915128689740339e-01  5.3651158796371616e+00  1.9245674161056823e+00  -3.6313134378902689e+01  -2.3891854250762492e+01  2.7127662640466507e+01  4.7101597067542926e+01  2.9665891367399023e+01  5.7565681686501849e-02  1.0865196883974686e+00  1.6965565302863115e+00  -3.2394268529147108e+00  -3.7370972811128982e+00  1.3198332152707453e-02  2.0004761088462082e+01  1.0792972970517381e+01  1.6998590547512924e+00  -3.4764107171407829e+01  4.8193931938551868e+00  -2.2539874174668038e+00  -8.9972214501544789e-01  2.0661377382292503e+01  -3.4615646902522208e+01  1.7039966790906009e+00  3.6052795521484228e+01  6.6024578194663626e+00  -1.5239387689458514e+01  -3.1585391652508420e+01  4.2427176620313514e+00  -2.8058513029803692e+01  -1.2188632542475636e+01  3.7230237361083397e+01  2.3075754280714591e+01  2.1987538812226353e+00  2.7680827527248790e+00  -3.1039197563348871e+01  3.5532953661322124e+00  -9.0778454857207649e+00  -8.5337044764690830e+00  -2.6044911253168298e+01  4.0708617953243007e+01  -3.2031854139496460e+01  -3.1738391493128038e+01  -3.4004071660016919e+01  1.3769548771975325e+01  1.3716984159472668e+01  1.4743402538598843e-01  9.3119808730539333e+00  7.4921981955367061e+00  1.3563185975396957e+01  -7.0444014970112061e+00  1.8027754136365413e+01  -3.4566641953360936e+01  -1.9366172792167433e+01  -3.0444113308621954e+01  3.1869950593406962e+01  3.1625110949658066e+00  5.0412856579863323e+00  3.3483097291067190e+00  2.9249385020301832e+00  -3.4144028763553784e+01  -5.7212602764735990e+01  2.3092968232312825e+00  1.8744059371251598e+00  -3.7025377257357661e+01  -2.8488658352457058e+01  -3.2690858058944258e+01  -3.3990711101271636e+01  -1.2131890823324325e+01  -2.7949491982445199e+01  -3.9206158666155439e+01  -4.2244168959984968e+01  1.6029164355857712e+00  -3.3645656768026591e+01  -3.4099996861700099e+01  -9.2624945509402046e-01  -1.9597144612340589e+01  -2.3461027862410631e+01  -4.4238063404599182e-02  -3.6131177910009498e+01  4.5310163289845200e+01  -3.5196163604570820e+01  -6.3189386743313465e+00  -3.6507959491800897e+01  -1.2617262786691272e+01  8.9096879988803494e-03  1.2486218768424420e+01  -2.9278945215462389e+01  5.6468026686380679e-01  5.8387441620112035e-01  -1.1975372661697742e+01  -2.3286387963359719e+01  -2.4704136870593786e+01  1.5013239094214867e+01  -3.6160928108747619e+01  -3.3123955300500263e+01  -2.9119681425342252e+00  -3.4545991020157430e+01  -5.2215042185389557e+01  -3.3201689655808273e+01  -1.0777519360983108e+00  2.1250649727983070e+01  3.9443203867709973e+00  1.2851442449143442e+00  1.7376053412991222e+01  -2.0687206769705724e+00  -9.1478508777572962e+00  -1.2691962395276306e+00  4.7661827336103130e+01  -3.6973738086247934e+01  2.5379543576662240e+01  -3.1465605506519896e+01  -3.1582651522530742e+01  2.6107175912329467e+01  3.8356712986560943e+01  3.4106960223562474e+01  -8.9731935405293584e+00  -3.4046855454749888e+01  9.4126745405329348e+00  6.3077789850232495e+00  -2.5957548172727908e+01  -1.2723765839480736e+01  2.2145462208419676e+01  -3.3709358559051516e+01  -3.4241083190477568e+01  -3.6284347847473725e+01  -3.3668408460618231e+01  1.5794369650130323e+01  -2.2332128447589216e+01  1.8084730588131919e+00  4.2921860337664931e+01  -3.2728092407828228e+01  4.7477866364165479e+01  2.4512512565588018e+00  9.4700128850443335e+00  -3.6273748882160262e+01  9.7899548666146075e+00  2.7456892937620019e+01  -3.4463601183950630e+01  -7.0292144881364100e+00  -3.2729176994240547e+01  -1.8683047026845781e+01  4.3974442564997362e+00  -3.3833951526685091e+01  -1.1375636156619624e+01  -4.8894922145035675e+00  -4.7147793593267560e+00  -2.0298517850663336e+00  1.0718450604936327e+00  2.4104280789628052e+00  -4.2213429527070474e+01  -4.7898115006660440e+01  7.7779327532506937e-01  2.4611978283747988e+00  6.0376391204293292e+00  3.8937942954528997e+00  -3.5119254112289696e+01  1.8949634091102574e+00  1.4074285406684761e+00  -3.3516785824690189e+01  1.4929124207604996e+00  1.1322380977707748e+01  3.1901247227498830e+00  -3.9531560611662144e+01  4.3080703336917008e+00  -3.4374154108290583e+01  1.8702933737116940e+01  -1.9666987201762141e+00  -9.7864855315656083e+00  6.9593490911200933e+00  -2.9098426758929719e+01  -3.2561910193436667e+01  -2.7083570589647852e+01  -3.2773336910093988e+01  -3.4197637530860064e+01  -3.7210364118766599e+01  -2.9978202879281440e+01  -3.8633259523286341e+01  -3.4587703882423376e+01  -3.1671229463856076e+01  9.8132789218197018e+00  -1.8397235630441884e+01  -2.2901806663856277e+01  3.3778734025474022e+00  -2.3462691194058365e+01  3.1650006652021700e-01  -4.6925391299785737e+00  2.7897442445091274e+00  -2.8831335937497204e+01  2.3922599832683154e+01  -3.2622542542880851e+01  5.2759578129894749e+00  -3.11924856